V -t * -v 1.0a5 -a 0
A -t * -n 1 -p 0 -o 0x7fffffff -c 30 -a 1
A -t * -h 1 -m 1073741823 -s 0
c -t * -i 4 -n Orange
c -t * -i 0 -n Yellow
c -t * -i 5 -n Pink
c -t * -i 1 -n Green
c -t * -i 6 -n Purple
c -t * -i 2 -n Red
c -t * -i 7 -n Cyan
c -t * -i 3 -n Blue
n -t * -a 0 -s 0 -S UP -v circle -c black -i black
n -t * -a 1 -s 1 -S UP -v circle -c black -i black
n -t * -a 2 -s 2 -S UP -v circle -c black -i black
n -t * -a 3 -s 3 -S UP -v circle -c black -i black
X -t * -n 4 -r 0.5Mb -D 40ms -o left
L -t * -s 4 -d 0 -o up
L -t * -s 4 -d 1 -o down
L -t * -s 4 -d 2 -o up
L -t * -s 4 -d 3 -o down
h -t 0.1 -s 0 -d 4 -p tcp -e 40 -c 0 -i 0 -a 0 -x {0.0 1.0 0 ------- null}
h -t 0.1 -s 1 -d 4 -p tcp -e 40 -c 1 -i 1 -a 1 -x {1.1 2.0 0 ------- null}
h -t 0.1 -s 2 -d 4 -p tcp -e 40 -c 2 -i 2 -a 2 -x {2.1 3.0 0 ------- null}
h -t 0.1 -s 3 -d 4 -p tcp -e 40 -c 3 -i 3 -a 3 -x {3.1 0.1 0 ------- null}
+ -t 0.14 -s 0 -d 4 -p tcp -e 40 -c 0 -i 0 -a 0 -x {0.0 1.0 0 ------- null}
- -t 0.14 -s 0 -d 4 -p tcp -e 40 -c 0 -i 0 -a 0 -x {0.0 1.0 0 ------- null}
h -t 0.14 -s 0 -d 4 -p tcp -e 40 -c 0 -i 0 -a 0 -x {0.0 1.0 -1 ------- null}
+ -t 0.14 -s 1 -d 4 -p tcp -e 40 -c 1 -i 1 -a 1 -x {1.1 2.0 0 ------- null}
- -t 0.14 -s 1 -d 4 -p tcp -e 40 -c 1 -i 1 -a 1 -x {1.1 2.0 0 ------- null}
h -t 0.14 -s 1 -d 4 -p tcp -e 40 -c 1 -i 1 -a 1 -x {1.1 2.0 -1 ------- null}
+ -t 0.14 -s 2 -d 4 -p tcp -e 40 -c 2 -i 2 -a 2 -x {2.1 3.0 0 ------- null}
- -t 0.14 -s 2 -d 4 -p tcp -e 40 -c 2 -i 2 -a 2 -x {2.1 3.0 0 ------- null}
h -t 0.14 -s 2 -d 4 -p tcp -e 40 -c 2 -i 2 -a 2 -x {2.1 3.0 -1 ------- null}
+ -t 0.14 -s 3 -d 4 -p tcp -e 40 -c 3 -i 3 -a 3 -x {3.1 0.1 0 ------- null}
- -t 0.14 -s 3 -d 4 -p tcp -e 40 -c 3 -i 3 -a 3 -x {3.1 0.1 0 ------- null}
h -t 0.14 -s 3 -d 4 -p tcp -e 40 -c 3 -i 3 -a 3 -x {3.1 0.1 -1 ------- null}
d -t 0.140004 -s 3 -d 4 -p tcp -e 40 -c 0 -i 0 -a 0 -x {0.0 1.0 0 ------- null}
d -t 0.140004 -s 2 -d 4 -p tcp -e 40 -c 0 -i 0 -a 0 -x {0.0 1.0 0 ------- null}
d -t 0.140004 -s 3 -d 4 -p tcp -e 40 -c 1 -i 1 -a 1 -x {1.1 2.0 0 ------- null}
d -t 0.140004 -s 0 -d 4 -p tcp -e 40 -c 1 -i 1 -a 1 -x {1.1 2.0 0 ------- null}
d -t 0.140004 -s 1 -d 4 -p tcp -e 40 -c 2 -i 2 -a 2 -x {2.1 3.0 0 ------- null}
d -t 0.140004 -s 0 -d 4 -p tcp -e 40 -c 2 -i 2 -a 2 -x {2.1 3.0 0 ------- null}
d -t 0.140004 -s 2 -d 4 -p tcp -e 40 -c 3 -i 3 -a 3 -x {3.1 0.1 0 ------- null}
d -t 0.140004 -s 1 -d 4 -p tcp -e 40 -c 3 -i 3 -a 3 -x {3.1 0.1 0 ------- null}
r -t 0.180004 -s 4 -d 1 -p tcp -e 40 -c 0 -i 0 -a 0 -x {0.0 1.0 0 ------- null}
h -t 0.180004 -s 1 -d 4 -p ack -e 40 -c 0 -i 4 -a 0 -x {1.0 0.0 0 ------- null}
r -t 0.180004 -s 4 -d 2 -p tcp -e 40 -c 1 -i 1 -a 1 -x {1.1 2.0 0 ------- null}
h -t 0.180004 -s 2 -d 4 -p ack -e 40 -c 1 -i 5 -a 1 -x {2.0 1.1 0 ------- null}
r -t 0.180004 -s 4 -d 3 -p tcp -e 40 -c 2 -i 2 -a 2 -x {2.1 3.0 0 ------- null}
h -t 0.180004 -s 3 -d 4 -p ack -e 40 -c 2 -i 6 -a 2 -x {3.0 2.1 0 ------- null}
r -t 0.180004 -s 4 -d 0 -p tcp -e 40 -c 3 -i 3 -a 3 -x {3.1 0.1 0 ------- null}
h -t 0.180004 -s 0 -d 4 -p ack -e 40 -c 3 -i 7 -a 3 -x {0.1 3.1 0 ------- null}
+ -t 0.220004 -s 1 -d 4 -p ack -e 40 -c 0 -i 4 -a 0 -x {1.0 0.0 0 ------- null}
- -t 0.220004 -s 1 -d 4 -p ack -e 40 -c 0 -i 4 -a 0 -x {1.0 0.0 0 ------- null}
h -t 0.220004 -s 1 -d 4 -p ack -e 40 -c 0 -i 4 -a 0 -x {1.0 0.0 -1 ------- null}
+ -t 0.220004 -s 2 -d 4 -p ack -e 40 -c 1 -i 5 -a 1 -x {2.0 1.1 0 ------- null}
- -t 0.220004 -s 2 -d 4 -p ack -e 40 -c 1 -i 5 -a 1 -x {2.0 1.1 0 ------- null}
h -t 0.220004 -s 2 -d 4 -p ack -e 40 -c 1 -i 5 -a 1 -x {2.0 1.1 -1 ------- null}
+ -t 0.220004 -s 3 -d 4 -p ack -e 40 -c 2 -i 6 -a 2 -x {3.0 2.1 0 ------- null}
- -t 0.220004 -s 3 -d 4 -p ack -e 40 -c 2 -i 6 -a 2 -x {3.0 2.1 0 ------- null}
h -t 0.220004 -s 3 -d 4 -p ack -e 40 -c 2 -i 6 -a 2 -x {3.0 2.1 -1 ------- null}
+ -t 0.220004 -s 0 -d 4 -p ack -e 40 -c 3 -i 7 -a 3 -x {0.1 3.1 0 ------- null}
- -t 0.220004 -s 0 -d 4 -p ack -e 40 -c 3 -i 7 -a 3 -x {0.1 3.1 0 ------- null}
h -t 0.220004 -s 0 -d 4 -p ack -e 40 -c 3 -i 7 -a 3 -x {0.1 3.1 -1 ------- null}
d -t 0.220008 -s 3 -d 4 -p ack -e 40 -c 0 -i 4 -a 0 -x {1.0 0.0 0 ------- null}
d -t 0.220008 -s 2 -d 4 -p ack -e 40 -c 0 -i 4 -a 0 -x {1.0 0.0 0 ------- null}
d -t 0.220008 -s 3 -d 4 -p ack -e 40 -c 1 -i 5 -a 1 -x {2.0 1.1 0 ------- null}
d -t 0.220008 -s 0 -d 4 -p ack -e 40 -c 1 -i 5 -a 1 -x {2.0 1.1 0 ------- null}
d -t 0.220008 -s 1 -d 4 -p ack -e 40 -c 2 -i 6 -a 2 -x {3.0 2.1 0 ------- null}
d -t 0.220008 -s 0 -d 4 -p ack -e 40 -c 2 -i 6 -a 2 -x {3.0 2.1 0 ------- null}
d -t 0.220008 -s 2 -d 4 -p ack -e 40 -c 3 -i 7 -a 3 -x {0.1 3.1 0 ------- null}
d -t 0.220008 -s 1 -d 4 -p ack -e 40 -c 3 -i 7 -a 3 -x {0.1 3.1 0 ------- null}
r -t 0.260008 -s 4 -d 0 -p ack -e 40 -c 0 -i 4 -a 0 -x {1.0 0.0 0 ------- null}
h -t 0.260008 -s 0 -d 4 -p tcp -e 1040 -c 0 -i 8 -a 0 -x {0.0 1.0 1 ------- null}
h -t 0.260008 -s 0 -d 4 -p tcp -e 1040 -c 0 -i 9 -a 0 -x {0.0 1.0 2 ------- null}
r -t 0.260008 -s 4 -d 1 -p ack -e 40 -c 1 -i 5 -a 1 -x {2.0 1.1 0 ------- null}
h -t 0.260008 -s 1 -d 4 -p tcp -e 1040 -c 1 -i 10 -a 1 -x {1.1 2.0 1 ------- null}
h -t 0.260008 -s 1 -d 4 -p tcp -e 1040 -c 1 -i 11 -a 1 -x {1.1 2.0 2 ------- null}
r -t 0.260008 -s 4 -d 2 -p ack -e 40 -c 2 -i 6 -a 2 -x {3.0 2.1 0 ------- null}
h -t 0.260008 -s 2 -d 4 -p tcp -e 1040 -c 2 -i 12 -a 2 -x {2.1 3.0 1 ------- null}
h -t 0.260008 -s 2 -d 4 -p tcp -e 1040 -c 2 -i 13 -a 2 -x {2.1 3.0 2 ------- null}
r -t 0.260008 -s 4 -d 3 -p ack -e 40 -c 3 -i 7 -a 3 -x {0.1 3.1 0 ------- null}
h -t 0.260008 -s 3 -d 4 -p tcp -e 1040 -c 3 -i 14 -a 3 -x {3.1 0.1 1 ------- null}
h -t 0.260008 -s 3 -d 4 -p tcp -e 1040 -c 3 -i 15 -a 3 -x {3.1 0.1 2 ------- null}
+ -t 0.300008 -s 0 -d 4 -p tcp -e 1040 -c 0 -i 8 -a 0 -x {0.0 1.0 1 ------- null}
- -t 0.300008 -s 0 -d 4 -p tcp -e 1040 -c 0 -i 8 -a 0 -x {0.0 1.0 1 ------- null}
h -t 0.300008 -s 0 -d 4 -p tcp -e 1040 -c 0 -i 8 -a 0 -x {0.0 1.0 -1 ------- null}
+ -t 0.300008 -s 0 -d 4 -p tcp -e 1040 -c 0 -i 9 -a 0 -x {0.0 1.0 2 ------- null}
+ -t 0.300008 -s 1 -d 4 -p tcp -e 1040 -c 1 -i 10 -a 1 -x {1.1 2.0 1 ------- null}
- -t 0.300008 -s 1 -d 4 -p tcp -e 1040 -c 1 -i 10 -a 1 -x {1.1 2.0 1 ------- null}
h -t 0.300008 -s 1 -d 4 -p tcp -e 1040 -c 1 -i 10 -a 1 -x {1.1 2.0 -1 ------- null}
+ -t 0.300008 -s 1 -d 4 -p tcp -e 1040 -c 1 -i 11 -a 1 -x {1.1 2.0 2 ------- null}
+ -t 0.300008 -s 2 -d 4 -p tcp -e 1040 -c 2 -i 12 -a 2 -x {2.1 3.0 1 ------- null}
- -t 0.300008 -s 2 -d 4 -p tcp -e 1040 -c 2 -i 12 -a 2 -x {2.1 3.0 1 ------- null}
h -t 0.300008 -s 2 -d 4 -p tcp -e 1040 -c 2 -i 12 -a 2 -x {2.1 3.0 -1 ------- null}
+ -t 0.300008 -s 2 -d 4 -p tcp -e 1040 -c 2 -i 13 -a 2 -x {2.1 3.0 2 ------- null}
+ -t 0.300008 -s 3 -d 4 -p tcp -e 1040 -c 3 -i 14 -a 3 -x {3.1 0.1 1 ------- null}
- -t 0.300008 -s 3 -d 4 -p tcp -e 1040 -c 3 -i 14 -a 3 -x {3.1 0.1 1 ------- null}
h -t 0.300008 -s 3 -d 4 -p tcp -e 1040 -c 3 -i 14 -a 3 -x {3.1 0.1 -1 ------- null}
+ -t 0.300008 -s 3 -d 4 -p tcp -e 1040 -c 3 -i 15 -a 3 -x {3.1 0.1 2 ------- null}
d -t 0.300012 -s 3 -d 4 -p tcp -e 1040 -c 0 -i 8 -a 0 -x {0.0 1.0 1 ------- null}
d -t 0.300012 -s 2 -d 4 -p tcp -e 1040 -c 0 -i 8 -a 0 -x {0.0 1.0 1 ------- null}
d -t 0.300012 -s 3 -d 4 -p tcp -e 1040 -c 1 -i 10 -a 1 -x {1.1 2.0 1 ------- null}
d -t 0.300012 -s 0 -d 4 -p tcp -e 1040 -c 1 -i 10 -a 1 -x {1.1 2.0 1 ------- null}
d -t 0.300012 -s 1 -d 4 -p tcp -e 1040 -c 2 -i 12 -a 2 -x {2.1 3.0 1 ------- null}
d -t 0.300012 -s 0 -d 4 -p tcp -e 1040 -c 2 -i 12 -a 2 -x {2.1 3.0 1 ------- null}
d -t 0.300012 -s 2 -d 4 -p tcp -e 1040 -c 3 -i 14 -a 3 -x {3.1 0.1 1 ------- null}
d -t 0.300012 -s 1 -d 4 -p tcp -e 1040 -c 3 -i 14 -a 3 -x {3.1 0.1 1 ------- null}
- -t 0.304424 -s 0 -d 4 -p tcp -e 1040 -c 0 -i 9 -a 0 -x {0.0 1.0 2 ------- null}
h -t 0.304424 -s 0 -d 4 -p tcp -e 1040 -c 0 -i 9 -a 0 -x {0.0 1.0 -1 ------- null}
- -t 0.304424 -s 1 -d 4 -p tcp -e 1040 -c 1 -i 11 -a 1 -x {1.1 2.0 2 ------- null}
h -t 0.304424 -s 1 -d 4 -p tcp -e 1040 -c 1 -i 11 -a 1 -x {1.1 2.0 -1 ------- null}
- -t 0.304424 -s 2 -d 4 -p tcp -e 1040 -c 2 -i 13 -a 2 -x {2.1 3.0 2 ------- null}
h -t 0.304424 -s 2 -d 4 -p tcp -e 1040 -c 2 -i 13 -a 2 -x {2.1 3.0 -1 ------- null}
- -t 0.304424 -s 3 -d 4 -p tcp -e 1040 -c 3 -i 15 -a 3 -x {3.1 0.1 2 ------- null}
h -t 0.304424 -s 3 -d 4 -p tcp -e 1040 -c 3 -i 15 -a 3 -x {3.1 0.1 -1 ------- null}
d -t 0.304428 -s 3 -d 4 -p tcp -e 1040 -c 0 -i 9 -a 0 -x {0.0 1.0 2 ------- null}
d -t 0.304428 -s 2 -d 4 -p tcp -e 1040 -c 0 -i 9 -a 0 -x {0.0 1.0 2 ------- null}
d -t 0.304428 -s 3 -d 4 -p tcp -e 1040 -c 1 -i 11 -a 1 -x {1.1 2.0 2 ------- null}
d -t 0.304428 -s 0 -d 4 -p tcp -e 1040 -c 1 -i 11 -a 1 -x {1.1 2.0 2 ------- null}
d -t 0.304428 -s 1 -d 4 -p tcp -e 1040 -c 2 -i 13 -a 2 -x {2.1 3.0 2 ------- null}
d -t 0.304428 -s 0 -d 4 -p tcp -e 1040 -c 2 -i 13 -a 2 -x {2.1 3.0 2 ------- null}
d -t 0.304428 -s 2 -d 4 -p tcp -e 1040 -c 3 -i 15 -a 3 -x {3.1 0.1 2 ------- null}
d -t 0.304428 -s 1 -d 4 -p tcp -e 1040 -c 3 -i 15 -a 3 -x {3.1 0.1 2 ------- null}
r -t 0.340012 -s 4 -d 1 -p tcp -e 1040 -c 0 -i 8 -a 0 -x {0.0 1.0 1 ------- null}
h -t 0.340012 -s 1 -d 4 -p ack -e 40 -c 0 -i 16 -a 0 -x {1.0 0.0 1 ------- null}
r -t 0.340012 -s 4 -d 2 -p tcp -e 1040 -c 1 -i 10 -a 1 -x {1.1 2.0 1 ------- null}
h -t 0.340012 -s 2 -d 4 -p ack -e 40 -c 1 -i 17 -a 1 -x {2.0 1.1 1 ------- null}
r -t 0.340012 -s 4 -d 3 -p tcp -e 1040 -c 2 -i 12 -a 2 -x {2.1 3.0 1 ------- null}
h -t 0.340012 -s 3 -d 4 -p ack -e 40 -c 2 -i 18 -a 2 -x {3.0 2.1 1 ------- null}
r -t 0.340012 -s 4 -d 0 -p tcp -e 1040 -c 3 -i 14 -a 3 -x {3.1 0.1 1 ------- null}
h -t 0.340012 -s 0 -d 4 -p ack -e 40 -c 3 -i 19 -a 3 -x {0.1 3.1 1 ------- null}
r -t 0.344428 -s 4 -d 1 -p tcp -e 1040 -c 0 -i 9 -a 0 -x {0.0 1.0 2 ------- null}
h -t 0.344428 -s 1 -d 4 -p ack -e 40 -c 0 -i 20 -a 0 -x {1.0 0.0 2 ------- null}
r -t 0.344428 -s 4 -d 2 -p tcp -e 1040 -c 1 -i 11 -a 1 -x {1.1 2.0 2 ------- null}
h -t 0.344428 -s 2 -d 4 -p ack -e 40 -c 1 -i 21 -a 1 -x {2.0 1.1 2 ------- null}
r -t 0.344428 -s 4 -d 3 -p tcp -e 1040 -c 2 -i 13 -a 2 -x {2.1 3.0 2 ------- null}
h -t 0.344428 -s 3 -d 4 -p ack -e 40 -c 2 -i 22 -a 2 -x {3.0 2.1 2 ------- null}
r -t 0.344428 -s 4 -d 0 -p tcp -e 1040 -c 3 -i 15 -a 3 -x {3.1 0.1 2 ------- null}
h -t 0.344428 -s 0 -d 4 -p ack -e 40 -c 3 -i 23 -a 3 -x {0.1 3.1 2 ------- null}
+ -t 0.380012 -s 1 -d 4 -p ack -e 40 -c 0 -i 16 -a 0 -x {1.0 0.0 1 ------- null}
- -t 0.380012 -s 1 -d 4 -p ack -e 40 -c 0 -i 16 -a 0 -x {1.0 0.0 1 ------- null}
h -t 0.380012 -s 1 -d 4 -p ack -e 40 -c 0 -i 16 -a 0 -x {1.0 0.0 -1 ------- null}
+ -t 0.380012 -s 2 -d 4 -p ack -e 40 -c 1 -i 17 -a 1 -x {2.0 1.1 1 ------- null}
- -t 0.380012 -s 2 -d 4 -p ack -e 40 -c 1 -i 17 -a 1 -x {2.0 1.1 1 ------- null}
h -t 0.380012 -s 2 -d 4 -p ack -e 40 -c 1 -i 17 -a 1 -x {2.0 1.1 -1 ------- null}
+ -t 0.380012 -s 3 -d 4 -p ack -e 40 -c 2 -i 18 -a 2 -x {3.0 2.1 1 ------- null}
- -t 0.380012 -s 3 -d 4 -p ack -e 40 -c 2 -i 18 -a 2 -x {3.0 2.1 1 ------- null}
h -t 0.380012 -s 3 -d 4 -p ack -e 40 -c 2 -i 18 -a 2 -x {3.0 2.1 -1 ------- null}
+ -t 0.380012 -s 0 -d 4 -p ack -e 40 -c 3 -i 19 -a 3 -x {0.1 3.1 1 ------- null}
- -t 0.380012 -s 0 -d 4 -p ack -e 40 -c 3 -i 19 -a 3 -x {0.1 3.1 1 ------- null}
h -t 0.380012 -s 0 -d 4 -p ack -e 40 -c 3 -i 19 -a 3 -x {0.1 3.1 -1 ------- null}
d -t 0.380016 -s 3 -d 4 -p ack -e 40 -c 0 -i 16 -a 0 -x {1.0 0.0 1 ------- null}
d -t 0.380016 -s 2 -d 4 -p ack -e 40 -c 0 -i 16 -a 0 -x {1.0 0.0 1 ------- null}
d -t 0.380016 -s 3 -d 4 -p ack -e 40 -c 1 -i 17 -a 1 -x {2.0 1.1 1 ------- null}
d -t 0.380016 -s 0 -d 4 -p ack -e 40 -c 1 -i 17 -a 1 -x {2.0 1.1 1 ------- null}
d -t 0.380016 -s 1 -d 4 -p ack -e 40 -c 2 -i 18 -a 2 -x {3.0 2.1 1 ------- null}
d -t 0.380016 -s 0 -d 4 -p ack -e 40 -c 2 -i 18 -a 2 -x {3.0 2.1 1 ------- null}
d -t 0.380016 -s 2 -d 4 -p ack -e 40 -c 3 -i 19 -a 3 -x {0.1 3.1 1 ------- null}
d -t 0.380016 -s 1 -d 4 -p ack -e 40 -c 3 -i 19 -a 3 -x {0.1 3.1 1 ------- null}
+ -t 0.384428 -s 1 -d 4 -p ack -e 40 -c 0 -i 20 -a 0 -x {1.0 0.0 2 ------- null}
- -t 0.384428 -s 1 -d 4 -p ack -e 40 -c 0 -i 20 -a 0 -x {1.0 0.0 2 ------- null}
h -t 0.384428 -s 1 -d 4 -p ack -e 40 -c 0 -i 20 -a 0 -x {1.0 0.0 -1 ------- null}
+ -t 0.384428 -s 2 -d 4 -p ack -e 40 -c 1 -i 21 -a 1 -x {2.0 1.1 2 ------- null}
- -t 0.384428 -s 2 -d 4 -p ack -e 40 -c 1 -i 21 -a 1 -x {2.0 1.1 2 ------- null}
h -t 0.384428 -s 2 -d 4 -p ack -e 40 -c 1 -i 21 -a 1 -x {2.0 1.1 -1 ------- null}
+ -t 0.384428 -s 3 -d 4 -p ack -e 40 -c 2 -i 22 -a 2 -x {3.0 2.1 2 ------- null}
- -t 0.384428 -s 3 -d 4 -p ack -e 40 -c 2 -i 22 -a 2 -x {3.0 2.1 2 ------- null}
h -t 0.384428 -s 3 -d 4 -p ack -e 40 -c 2 -i 22 -a 2 -x {3.0 2.1 -1 ------- null}
+ -t 0.384428 -s 0 -d 4 -p ack -e 40 -c 3 -i 23 -a 3 -x {0.1 3.1 2 ------- null}
- -t 0.384428 -s 0 -d 4 -p ack -e 40 -c 3 -i 23 -a 3 -x {0.1 3.1 2 ------- null}
h -t 0.384428 -s 0 -d 4 -p ack -e 40 -c 3 -i 23 -a 3 -x {0.1 3.1 -1 ------- null}
d -t 0.384432 -s 3 -d 4 -p ack -e 40 -c 0 -i 20 -a 0 -x {1.0 0.0 2 ------- null}
d -t 0.384432 -s 2 -d 4 -p ack -e 40 -c 0 -i 20 -a 0 -x {1.0 0.0 2 ------- null}
d -t 0.384432 -s 3 -d 4 -p ack -e 40 -c 1 -i 21 -a 1 -x {2.0 1.1 2 ------- null}
d -t 0.384432 -s 0 -d 4 -p ack -e 40 -c 1 -i 21 -a 1 -x {2.0 1.1 2 ------- null}
d -t 0.384432 -s 1 -d 4 -p ack -e 40 -c 2 -i 22 -a 2 -x {3.0 2.1 2 ------- null}
d -t 0.384432 -s 0 -d 4 -p ack -e 40 -c 2 -i 22 -a 2 -x {3.0 2.1 2 ------- null}
d -t 0.384432 -s 2 -d 4 -p ack -e 40 -c 3 -i 23 -a 3 -x {0.1 3.1 2 ------- null}
d -t 0.384432 -s 1 -d 4 -p ack -e 40 -c 3 -i 23 -a 3 -x {0.1 3.1 2 ------- null}
r -t 0.420016 -s 4 -d 0 -p ack -e 40 -c 0 -i 16 -a 0 -x {1.0 0.0 1 ------- null}
h -t 0.420016 -s 0 -d 4 -p tcp -e 1040 -c 0 -i 24 -a 0 -x {0.0 1.0 3 ------- null}
h -t 0.420016 -s 0 -d 4 -p tcp -e 1040 -c 0 -i 25 -a 0 -x {0.0 1.0 4 ------- null}
r -t 0.420016 -s 4 -d 1 -p ack -e 40 -c 1 -i 17 -a 1 -x {2.0 1.1 1 ------- null}
h -t 0.420016 -s 1 -d 4 -p tcp -e 1040 -c 1 -i 26 -a 1 -x {1.1 2.0 3 ------- null}
h -t 0.420016 -s 1 -d 4 -p tcp -e 1040 -c 1 -i 27 -a 1 -x {1.1 2.0 4 ------- null}
r -t 0.420016 -s 4 -d 2 -p ack -e 40 -c 2 -i 18 -a 2 -x {3.0 2.1 1 ------- null}
h -t 0.420016 -s 2 -d 4 -p tcp -e 1040 -c 2 -i 28 -a 2 -x {2.1 3.0 3 ------- null}
h -t 0.420016 -s 2 -d 4 -p tcp -e 1040 -c 2 -i 29 -a 2 -x {2.1 3.0 4 ------- null}
r -t 0.420016 -s 4 -d 3 -p ack -e 40 -c 3 -i 19 -a 3 -x {0.1 3.1 1 ------- null}
h -t 0.420016 -s 3 -d 4 -p tcp -e 1040 -c 3 -i 30 -a 3 -x {3.1 0.1 3 ------- null}
h -t 0.420016 -s 3 -d 4 -p tcp -e 1040 -c 3 -i 31 -a 3 -x {3.1 0.1 4 ------- null}
r -t 0.424432 -s 4 -d 0 -p ack -e 40 -c 0 -i 20 -a 0 -x {1.0 0.0 2 ------- null}
h -t 0.424432 -s 0 -d 4 -p tcp -e 1040 -c 0 -i 32 -a 0 -x {0.0 1.0 5 ------- null}
h -t 0.424432 -s 0 -d 4 -p tcp -e 1040 -c 0 -i 33 -a 0 -x {0.0 1.0 6 ------- null}
r -t 0.424432 -s 4 -d 1 -p ack -e 40 -c 1 -i 21 -a 1 -x {2.0 1.1 2 ------- null}
h -t 0.424432 -s 1 -d 4 -p tcp -e 1040 -c 1 -i 34 -a 1 -x {1.1 2.0 5 ------- null}
h -t 0.424432 -s 1 -d 4 -p tcp -e 1040 -c 1 -i 35 -a 1 -x {1.1 2.0 6 ------- null}
r -t 0.424432 -s 4 -d 2 -p ack -e 40 -c 2 -i 22 -a 2 -x {3.0 2.1 2 ------- null}
h -t 0.424432 -s 2 -d 4 -p tcp -e 1040 -c 2 -i 36 -a 2 -x {2.1 3.0 5 ------- null}
h -t 0.424432 -s 2 -d 4 -p tcp -e 1040 -c 2 -i 37 -a 2 -x {2.1 3.0 6 ------- null}
r -t 0.424432 -s 4 -d 3 -p ack -e 40 -c 3 -i 23 -a 3 -x {0.1 3.1 2 ------- null}
h -t 0.424432 -s 3 -d 4 -p tcp -e 1040 -c 3 -i 38 -a 3 -x {3.1 0.1 5 ------- null}
h -t 0.424432 -s 3 -d 4 -p tcp -e 1040 -c 3 -i 39 -a 3 -x {3.1 0.1 6 ------- null}
+ -t 0.460016 -s 0 -d 4 -p tcp -e 1040 -c 0 -i 24 -a 0 -x {0.0 1.0 3 ------- null}
- -t 0.460016 -s 0 -d 4 -p tcp -e 1040 -c 0 -i 24 -a 0 -x {0.0 1.0 3 ------- null}
h -t 0.460016 -s 0 -d 4 -p tcp -e 1040 -c 0 -i 24 -a 0 -x {0.0 1.0 -1 ------- null}
+ -t 0.460016 -s 0 -d 4 -p tcp -e 1040 -c 0 -i 25 -a 0 -x {0.0 1.0 4 ------- null}
+ -t 0.460016 -s 1 -d 4 -p tcp -e 1040 -c 1 -i 26 -a 1 -x {1.1 2.0 3 ------- null}
- -t 0.460016 -s 1 -d 4 -p tcp -e 1040 -c 1 -i 26 -a 1 -x {1.1 2.0 3 ------- null}
h -t 0.460016 -s 1 -d 4 -p tcp -e 1040 -c 1 -i 26 -a 1 -x {1.1 2.0 -1 ------- null}
+ -t 0.460016 -s 1 -d 4 -p tcp -e 1040 -c 1 -i 27 -a 1 -x {1.1 2.0 4 ------- null}
+ -t 0.460016 -s 2 -d 4 -p tcp -e 1040 -c 2 -i 28 -a 2 -x {2.1 3.0 3 ------- null}
- -t 0.460016 -s 2 -d 4 -p tcp -e 1040 -c 2 -i 28 -a 2 -x {2.1 3.0 3 ------- null}
h -t 0.460016 -s 2 -d 4 -p tcp -e 1040 -c 2 -i 28 -a 2 -x {2.1 3.0 -1 ------- null}
+ -t 0.460016 -s 2 -d 4 -p tcp -e 1040 -c 2 -i 29 -a 2 -x {2.1 3.0 4 ------- null}
+ -t 0.460016 -s 3 -d 4 -p tcp -e 1040 -c 3 -i 30 -a 3 -x {3.1 0.1 3 ------- null}
- -t 0.460016 -s 3 -d 4 -p tcp -e 1040 -c 3 -i 30 -a 3 -x {3.1 0.1 3 ------- null}
h -t 0.460016 -s 3 -d 4 -p tcp -e 1040 -c 3 -i 30 -a 3 -x {3.1 0.1 -1 ------- null}
+ -t 0.460016 -s 3 -d 4 -p tcp -e 1040 -c 3 -i 31 -a 3 -x {3.1 0.1 4 ------- null}
d -t 0.46002 -s 3 -d 4 -p tcp -e 1040 -c 0 -i 24 -a 0 -x {0.0 1.0 3 ------- null}
d -t 0.46002 -s 2 -d 4 -p tcp -e 1040 -c 0 -i 24 -a 0 -x {0.0 1.0 3 ------- null}
d -t 0.46002 -s 3 -d 4 -p tcp -e 1040 -c 1 -i 26 -a 1 -x {1.1 2.0 3 ------- null}
d -t 0.46002 -s 0 -d 4 -p tcp -e 1040 -c 1 -i 26 -a 1 -x {1.1 2.0 3 ------- null}
d -t 0.46002 -s 1 -d 4 -p tcp -e 1040 -c 2 -i 28 -a 2 -x {2.1 3.0 3 ------- null}
d -t 0.46002 -s 0 -d 4 -p tcp -e 1040 -c 2 -i 28 -a 2 -x {2.1 3.0 3 ------- null}
d -t 0.46002 -s 2 -d 4 -p tcp -e 1040 -c 3 -i 30 -a 3 -x {3.1 0.1 3 ------- null}
d -t 0.46002 -s 1 -d 4 -p tcp -e 1040 -c 3 -i 30 -a 3 -x {3.1 0.1 3 ------- null}
+ -t 0.464432 -s 0 -d 4 -p tcp -e 1040 -c 0 -i 32 -a 0 -x {0.0 1.0 5 ------- null}
+ -t 0.464432 -s 0 -d 4 -p tcp -e 1040 -c 0 -i 33 -a 0 -x {0.0 1.0 6 ------- null}
+ -t 0.464432 -s 1 -d 4 -p tcp -e 1040 -c 1 -i 34 -a 1 -x {1.1 2.0 5 ------- null}
+ -t 0.464432 -s 1 -d 4 -p tcp -e 1040 -c 1 -i 35 -a 1 -x {1.1 2.0 6 ------- null}
+ -t 0.464432 -s 2 -d 4 -p tcp -e 1040 -c 2 -i 36 -a 2 -x {2.1 3.0 5 ------- null}
+ -t 0.464432 -s 2 -d 4 -p tcp -e 1040 -c 2 -i 37 -a 2 -x {2.1 3.0 6 ------- null}
+ -t 0.464432 -s 3 -d 4 -p tcp -e 1040 -c 3 -i 38 -a 3 -x {3.1 0.1 5 ------- null}
+ -t 0.464432 -s 3 -d 4 -p tcp -e 1040 -c 3 -i 39 -a 3 -x {3.1 0.1 6 ------- null}
- -t 0.464432 -s 0 -d 4 -p tcp -e 1040 -c 0 -i 25 -a 0 -x {0.0 1.0 4 ------- null}
h -t 0.464432 -s 0 -d 4 -p tcp -e 1040 -c 0 -i 25 -a 0 -x {0.0 1.0 -1 ------- null}
- -t 0.464432 -s 1 -d 4 -p tcp -e 1040 -c 1 -i 27 -a 1 -x {1.1 2.0 4 ------- null}
h -t 0.464432 -s 1 -d 4 -p tcp -e 1040 -c 1 -i 27 -a 1 -x {1.1 2.0 -1 ------- null}
- -t 0.464432 -s 2 -d 4 -p tcp -e 1040 -c 2 -i 29 -a 2 -x {2.1 3.0 4 ------- null}
h -t 0.464432 -s 2 -d 4 -p tcp -e 1040 -c 2 -i 29 -a 2 -x {2.1 3.0 -1 ------- null}
- -t 0.464432 -s 3 -d 4 -p tcp -e 1040 -c 3 -i 31 -a 3 -x {3.1 0.1 4 ------- null}
h -t 0.464432 -s 3 -d 4 -p tcp -e 1040 -c 3 -i 31 -a 3 -x {3.1 0.1 -1 ------- null}
d -t 0.464436 -s 3 -d 4 -p tcp -e 1040 -c 0 -i 25 -a 0 -x {0.0 1.0 4 ------- null}
d -t 0.464436 -s 2 -d 4 -p tcp -e 1040 -c 0 -i 25 -a 0 -x {0.0 1.0 4 ------- null}
d -t 0.464436 -s 3 -d 4 -p tcp -e 1040 -c 1 -i 27 -a 1 -x {1.1 2.0 4 ------- null}
d -t 0.464436 -s 0 -d 4 -p tcp -e 1040 -c 1 -i 27 -a 1 -x {1.1 2.0 4 ------- null}
d -t 0.464436 -s 1 -d 4 -p tcp -e 1040 -c 2 -i 29 -a 2 -x {2.1 3.0 4 ------- null}
d -t 0.464436 -s 0 -d 4 -p tcp -e 1040 -c 2 -i 29 -a 2 -x {2.1 3.0 4 ------- null}
d -t 0.464436 -s 2 -d 4 -p tcp -e 1040 -c 3 -i 31 -a 3 -x {3.1 0.1 4 ------- null}
d -t 0.464436 -s 1 -d 4 -p tcp -e 1040 -c 3 -i 31 -a 3 -x {3.1 0.1 4 ------- null}
- -t 0.468848 -s 0 -d 4 -p tcp -e 1040 -c 0 -i 32 -a 0 -x {0.0 1.0 5 ------- null}
h -t 0.468848 -s 0 -d 4 -p tcp -e 1040 -c 0 -i 32 -a 0 -x {0.0 1.0 -1 ------- null}
- -t 0.468848 -s 1 -d 4 -p tcp -e 1040 -c 1 -i 34 -a 1 -x {1.1 2.0 5 ------- null}
h -t 0.468848 -s 1 -d 4 -p tcp -e 1040 -c 1 -i 34 -a 1 -x {1.1 2.0 -1 ------- null}
- -t 0.468848 -s 2 -d 4 -p tcp -e 1040 -c 2 -i 36 -a 2 -x {2.1 3.0 5 ------- null}
h -t 0.468848 -s 2 -d 4 -p tcp -e 1040 -c 2 -i 36 -a 2 -x {2.1 3.0 -1 ------- null}
- -t 0.468848 -s 3 -d 4 -p tcp -e 1040 -c 3 -i 38 -a 3 -x {3.1 0.1 5 ------- null}
h -t 0.468848 -s 3 -d 4 -p tcp -e 1040 -c 3 -i 38 -a 3 -x {3.1 0.1 -1 ------- null}
d -t 0.468852 -s 3 -d 4 -p tcp -e 1040 -c 0 -i 32 -a 0 -x {0.0 1.0 5 ------- null}
d -t 0.468852 -s 2 -d 4 -p tcp -e 1040 -c 0 -i 32 -a 0 -x {0.0 1.0 5 ------- null}
d -t 0.468852 -s 3 -d 4 -p tcp -e 1040 -c 1 -i 34 -a 1 -x {1.1 2.0 5 ------- null}
d -t 0.468852 -s 0 -d 4 -p tcp -e 1040 -c 1 -i 34 -a 1 -x {1.1 2.0 5 ------- null}
d -t 0.468852 -s 1 -d 4 -p tcp -e 1040 -c 2 -i 36 -a 2 -x {2.1 3.0 5 ------- null}
d -t 0.468852 -s 0 -d 4 -p tcp -e 1040 -c 2 -i 36 -a 2 -x {2.1 3.0 5 ------- null}
d -t 0.468852 -s 2 -d 4 -p tcp -e 1040 -c 3 -i 38 -a 3 -x {3.1 0.1 5 ------- null}
d -t 0.468852 -s 1 -d 4 -p tcp -e 1040 -c 3 -i 38 -a 3 -x {3.1 0.1 5 ------- null}
- -t 0.473264 -s 0 -d 4 -p tcp -e 1040 -c 0 -i 33 -a 0 -x {0.0 1.0 6 ------- null}
h -t 0.473264 -s 0 -d 4 -p tcp -e 1040 -c 0 -i 33 -a 0 -x {0.0 1.0 -1 ------- null}
- -t 0.473264 -s 1 -d 4 -p tcp -e 1040 -c 1 -i 35 -a 1 -x {1.1 2.0 6 ------- null}
h -t 0.473264 -s 1 -d 4 -p tcp -e 1040 -c 1 -i 35 -a 1 -x {1.1 2.0 -1 ------- null}
- -t 0.473264 -s 2 -d 4 -p tcp -e 1040 -c 2 -i 37 -a 2 -x {2.1 3.0 6 ------- null}
h -t 0.473264 -s 2 -d 4 -p tcp -e 1040 -c 2 -i 37 -a 2 -x {2.1 3.0 -1 ------- null}
- -t 0.473264 -s 3 -d 4 -p tcp -e 1040 -c 3 -i 39 -a 3 -x {3.1 0.1 6 ------- null}
h -t 0.473264 -s 3 -d 4 -p tcp -e 1040 -c 3 -i 39 -a 3 -x {3.1 0.1 -1 ------- null}
d -t 0.473268 -s 3 -d 4 -p tcp -e 1040 -c 0 -i 33 -a 0 -x {0.0 1.0 6 ------- null}
d -t 0.473268 -s 2 -d 4 -p tcp -e 1040 -c 0 -i 33 -a 0 -x {0.0 1.0 6 ------- null}
d -t 0.473268 -s 3 -d 4 -p tcp -e 1040 -c 1 -i 35 -a 1 -x {1.1 2.0 6 ------- null}
d -t 0.473268 -s 0 -d 4 -p tcp -e 1040 -c 1 -i 35 -a 1 -x {1.1 2.0 6 ------- null}
d -t 0.473268 -s 1 -d 4 -p tcp -e 1040 -c 2 -i 37 -a 2 -x {2.1 3.0 6 ------- null}
d -t 0.473268 -s 0 -d 4 -p tcp -e 1040 -c 2 -i 37 -a 2 -x {2.1 3.0 6 ------- null}
d -t 0.473268 -s 2 -d 4 -p tcp -e 1040 -c 3 -i 39 -a 3 -x {3.1 0.1 6 ------- null}
d -t 0.473268 -s 1 -d 4 -p tcp -e 1040 -c 3 -i 39 -a 3 -x {3.1 0.1 6 ------- null}
r -t 0.50002 -s 4 -d 1 -p tcp -e 1040 -c 0 -i 24 -a 0 -x {0.0 1.0 3 ------- null}
h -t 0.50002 -s 1 -d 4 -p ack -e 40 -c 0 -i 40 -a 0 -x {1.0 0.0 3 ------- null}
r -t 0.50002 -s 4 -d 2 -p tcp -e 1040 -c 1 -i 26 -a 1 -x {1.1 2.0 3 ------- null}
h -t 0.50002 -s 2 -d 4 -p ack -e 40 -c 1 -i 41 -a 1 -x {2.0 1.1 3 ------- null}
r -t 0.50002 -s 4 -d 3 -p tcp -e 1040 -c 2 -i 28 -a 2 -x {2.1 3.0 3 ------- null}
h -t 0.50002 -s 3 -d 4 -p ack -e 40 -c 2 -i 42 -a 2 -x {3.0 2.1 3 ------- null}
r -t 0.50002 -s 4 -d 0 -p tcp -e 1040 -c 3 -i 30 -a 3 -x {3.1 0.1 3 ------- null}
h -t 0.50002 -s 0 -d 4 -p ack -e 40 -c 3 -i 43 -a 3 -x {0.1 3.1 3 ------- null}
r -t 0.504436 -s 4 -d 1 -p tcp -e 1040 -c 0 -i 25 -a 0 -x {0.0 1.0 4 ------- null}
h -t 0.504436 -s 1 -d 4 -p ack -e 40 -c 0 -i 44 -a 0 -x {1.0 0.0 4 ------- null}
r -t 0.504436 -s 4 -d 2 -p tcp -e 1040 -c 1 -i 27 -a 1 -x {1.1 2.0 4 ------- null}
h -t 0.504436 -s 2 -d 4 -p ack -e 40 -c 1 -i 45 -a 1 -x {2.0 1.1 4 ------- null}
r -t 0.504436 -s 4 -d 3 -p tcp -e 1040 -c 2 -i 29 -a 2 -x {2.1 3.0 4 ------- null}
h -t 0.504436 -s 3 -d 4 -p ack -e 40 -c 2 -i 46 -a 2 -x {3.0 2.1 4 ------- null}
r -t 0.504436 -s 4 -d 0 -p tcp -e 1040 -c 3 -i 31 -a 3 -x {3.1 0.1 4 ------- null}
h -t 0.504436 -s 0 -d 4 -p ack -e 40 -c 3 -i 47 -a 3 -x {0.1 3.1 4 ------- null}
r -t 0.508852 -s 4 -d 1 -p tcp -e 1040 -c 0 -i 32 -a 0 -x {0.0 1.0 5 ------- null}
h -t 0.508852 -s 1 -d 4 -p ack -e 40 -c 0 -i 48 -a 0 -x {1.0 0.0 5 ------- null}
r -t 0.508852 -s 4 -d 2 -p tcp -e 1040 -c 1 -i 34 -a 1 -x {1.1 2.0 5 ------- null}
h -t 0.508852 -s 2 -d 4 -p ack -e 40 -c 1 -i 49 -a 1 -x {2.0 1.1 5 ------- null}
r -t 0.508852 -s 4 -d 3 -p tcp -e 1040 -c 2 -i 36 -a 2 -x {2.1 3.0 5 ------- null}
h -t 0.508852 -s 3 -d 4 -p ack -e 40 -c 2 -i 50 -a 2 -x {3.0 2.1 5 ------- null}
r -t 0.508852 -s 4 -d 0 -p tcp -e 1040 -c 3 -i 38 -a 3 -x {3.1 0.1 5 ------- null}
h -t 0.508852 -s 0 -d 4 -p ack -e 40 -c 3 -i 51 -a 3 -x {0.1 3.1 5 ------- null}
r -t 0.513268 -s 4 -d 1 -p tcp -e 1040 -c 0 -i 33 -a 0 -x {0.0 1.0 6 ------- null}
h -t 0.513268 -s 1 -d 4 -p ack -e 40 -c 0 -i 52 -a 0 -x {1.0 0.0 6 ------- null}
r -t 0.513268 -s 4 -d 2 -p tcp -e 1040 -c 1 -i 35 -a 1 -x {1.1 2.0 6 ------- null}
h -t 0.513268 -s 2 -d 4 -p ack -e 40 -c 1 -i 53 -a 1 -x {2.0 1.1 6 ------- null}
r -t 0.513268 -s 4 -d 3 -p tcp -e 1040 -c 2 -i 37 -a 2 -x {2.1 3.0 6 ------- null}
h -t 0.513268 -s 3 -d 4 -p ack -e 40 -c 2 -i 54 -a 2 -x {3.0 2.1 6 ------- null}
r -t 0.513268 -s 4 -d 0 -p tcp -e 1040 -c 3 -i 39 -a 3 -x {3.1 0.1 6 ------- null}
h -t 0.513268 -s 0 -d 4 -p ack -e 40 -c 3 -i 55 -a 3 -x {0.1 3.1 6 ------- null}
+ -t 0.54002 -s 1 -d 4 -p ack -e 40 -c 0 -i 40 -a 0 -x {1.0 0.0 3 ------- null}
- -t 0.54002 -s 1 -d 4 -p ack -e 40 -c 0 -i 40 -a 0 -x {1.0 0.0 3 ------- null}
h -t 0.54002 -s 1 -d 4 -p ack -e 40 -c 0 -i 40 -a 0 -x {1.0 0.0 -1 ------- null}
+ -t 0.54002 -s 2 -d 4 -p ack -e 40 -c 1 -i 41 -a 1 -x {2.0 1.1 3 ------- null}
- -t 0.54002 -s 2 -d 4 -p ack -e 40 -c 1 -i 41 -a 1 -x {2.0 1.1 3 ------- null}
h -t 0.54002 -s 2 -d 4 -p ack -e 40 -c 1 -i 41 -a 1 -x {2.0 1.1 -1 ------- null}
+ -t 0.54002 -s 3 -d 4 -p ack -e 40 -c 2 -i 42 -a 2 -x {3.0 2.1 3 ------- null}
- -t 0.54002 -s 3 -d 4 -p ack -e 40 -c 2 -i 42 -a 2 -x {3.0 2.1 3 ------- null}
h -t 0.54002 -s 3 -d 4 -p ack -e 40 -c 2 -i 42 -a 2 -x {3.0 2.1 -1 ------- null}
+ -t 0.54002 -s 0 -d 4 -p ack -e 40 -c 3 -i 43 -a 3 -x {0.1 3.1 3 ------- null}
- -t 0.54002 -s 0 -d 4 -p ack -e 40 -c 3 -i 43 -a 3 -x {0.1 3.1 3 ------- null}
h -t 0.54002 -s 0 -d 4 -p ack -e 40 -c 3 -i 43 -a 3 -x {0.1 3.1 -1 ------- null}
d -t 0.540024 -s 3 -d 4 -p ack -e 40 -c 0 -i 40 -a 0 -x {1.0 0.0 3 ------- null}
d -t 0.540024 -s 2 -d 4 -p ack -e 40 -c 0 -i 40 -a 0 -x {1.0 0.0 3 ------- null}
d -t 0.540024 -s 3 -d 4 -p ack -e 40 -c 1 -i 41 -a 1 -x {2.0 1.1 3 ------- null}
d -t 0.540024 -s 0 -d 4 -p ack -e 40 -c 1 -i 41 -a 1 -x {2.0 1.1 3 ------- null}
d -t 0.540024 -s 1 -d 4 -p ack -e 40 -c 2 -i 42 -a 2 -x {3.0 2.1 3 ------- null}
d -t 0.540024 -s 0 -d 4 -p ack -e 40 -c 2 -i 42 -a 2 -x {3.0 2.1 3 ------- null}
d -t 0.540024 -s 2 -d 4 -p ack -e 40 -c 3 -i 43 -a 3 -x {0.1 3.1 3 ------- null}
d -t 0.540024 -s 1 -d 4 -p ack -e 40 -c 3 -i 43 -a 3 -x {0.1 3.1 3 ------- null}
+ -t 0.544436 -s 1 -d 4 -p ack -e 40 -c 0 -i 44 -a 0 -x {1.0 0.0 4 ------- null}
- -t 0.544436 -s 1 -d 4 -p ack -e 40 -c 0 -i 44 -a 0 -x {1.0 0.0 4 ------- null}
h -t 0.544436 -s 1 -d 4 -p ack -e 40 -c 0 -i 44 -a 0 -x {1.0 0.0 -1 ------- null}
+ -t 0.544436 -s 2 -d 4 -p ack -e 40 -c 1 -i 45 -a 1 -x {2.0 1.1 4 ------- null}
- -t 0.544436 -s 2 -d 4 -p ack -e 40 -c 1 -i 45 -a 1 -x {2.0 1.1 4 ------- null}
h -t 0.544436 -s 2 -d 4 -p ack -e 40 -c 1 -i 45 -a 1 -x {2.0 1.1 -1 ------- null}
+ -t 0.544436 -s 3 -d 4 -p ack -e 40 -c 2 -i 46 -a 2 -x {3.0 2.1 4 ------- null}
- -t 0.544436 -s 3 -d 4 -p ack -e 40 -c 2 -i 46 -a 2 -x {3.0 2.1 4 ------- null}
h -t 0.544436 -s 3 -d 4 -p ack -e 40 -c 2 -i 46 -a 2 -x {3.0 2.1 -1 ------- null}
+ -t 0.544436 -s 0 -d 4 -p ack -e 40 -c 3 -i 47 -a 3 -x {0.1 3.1 4 ------- null}
- -t 0.544436 -s 0 -d 4 -p ack -e 40 -c 3 -i 47 -a 3 -x {0.1 3.1 4 ------- null}
h -t 0.544436 -s 0 -d 4 -p ack -e 40 -c 3 -i 47 -a 3 -x {0.1 3.1 -1 ------- null}
d -t 0.54444 -s 3 -d 4 -p ack -e 40 -c 0 -i 44 -a 0 -x {1.0 0.0 4 ------- null}
d -t 0.54444 -s 2 -d 4 -p ack -e 40 -c 0 -i 44 -a 0 -x {1.0 0.0 4 ------- null}
d -t 0.54444 -s 3 -d 4 -p ack -e 40 -c 1 -i 45 -a 1 -x {2.0 1.1 4 ------- null}
d -t 0.54444 -s 0 -d 4 -p ack -e 40 -c 1 -i 45 -a 1 -x {2.0 1.1 4 ------- null}
d -t 0.54444 -s 1 -d 4 -p ack -e 40 -c 2 -i 46 -a 2 -x {3.0 2.1 4 ------- null}
d -t 0.54444 -s 0 -d 4 -p ack -e 40 -c 2 -i 46 -a 2 -x {3.0 2.1 4 ------- null}
d -t 0.54444 -s 2 -d 4 -p ack -e 40 -c 3 -i 47 -a 3 -x {0.1 3.1 4 ------- null}
d -t 0.54444 -s 1 -d 4 -p ack -e 40 -c 3 -i 47 -a 3 -x {0.1 3.1 4 ------- null}
+ -t 0.548852 -s 1 -d 4 -p ack -e 40 -c 0 -i 48 -a 0 -x {1.0 0.0 5 ------- null}
- -t 0.548852 -s 1 -d 4 -p ack -e 40 -c 0 -i 48 -a 0 -x {1.0 0.0 5 ------- null}
h -t 0.548852 -s 1 -d 4 -p ack -e 40 -c 0 -i 48 -a 0 -x {1.0 0.0 -1 ------- null}
+ -t 0.548852 -s 2 -d 4 -p ack -e 40 -c 1 -i 49 -a 1 -x {2.0 1.1 5 ------- null}
- -t 0.548852 -s 2 -d 4 -p ack -e 40 -c 1 -i 49 -a 1 -x {2.0 1.1 5 ------- null}
h -t 0.548852 -s 2 -d 4 -p ack -e 40 -c 1 -i 49 -a 1 -x {2.0 1.1 -1 ------- null}
+ -t 0.548852 -s 3 -d 4 -p ack -e 40 -c 2 -i 50 -a 2 -x {3.0 2.1 5 ------- null}
- -t 0.548852 -s 3 -d 4 -p ack -e 40 -c 2 -i 50 -a 2 -x {3.0 2.1 5 ------- null}
h -t 0.548852 -s 3 -d 4 -p ack -e 40 -c 2 -i 50 -a 2 -x {3.0 2.1 -1 ------- null}
+ -t 0.548852 -s 0 -d 4 -p ack -e 40 -c 3 -i 51 -a 3 -x {0.1 3.1 5 ------- null}
- -t 0.548852 -s 0 -d 4 -p ack -e 40 -c 3 -i 51 -a 3 -x {0.1 3.1 5 ------- null}
h -t 0.548852 -s 0 -d 4 -p ack -e 40 -c 3 -i 51 -a 3 -x {0.1 3.1 -1 ------- null}
d -t 0.548856 -s 3 -d 4 -p ack -e 40 -c 0 -i 48 -a 0 -x {1.0 0.0 5 ------- null}
d -t 0.548856 -s 2 -d 4 -p ack -e 40 -c 0 -i 48 -a 0 -x {1.0 0.0 5 ------- null}
d -t 0.548856 -s 3 -d 4 -p ack -e 40 -c 1 -i 49 -a 1 -x {2.0 1.1 5 ------- null}
d -t 0.548856 -s 0 -d 4 -p ack -e 40 -c 1 -i 49 -a 1 -x {2.0 1.1 5 ------- null}
d -t 0.548856 -s 1 -d 4 -p ack -e 40 -c 2 -i 50 -a 2 -x {3.0 2.1 5 ------- null}
d -t 0.548856 -s 0 -d 4 -p ack -e 40 -c 2 -i 50 -a 2 -x {3.0 2.1 5 ------- null}
d -t 0.548856 -s 2 -d 4 -p ack -e 40 -c 3 -i 51 -a 3 -x {0.1 3.1 5 ------- null}
d -t 0.548856 -s 1 -d 4 -p ack -e 40 -c 3 -i 51 -a 3 -x {0.1 3.1 5 ------- null}
+ -t 0.553268 -s 1 -d 4 -p ack -e 40 -c 0 -i 52 -a 0 -x {1.0 0.0 6 ------- null}
- -t 0.553268 -s 1 -d 4 -p ack -e 40 -c 0 -i 52 -a 0 -x {1.0 0.0 6 ------- null}
h -t 0.553268 -s 1 -d 4 -p ack -e 40 -c 0 -i 52 -a 0 -x {1.0 0.0 -1 ------- null}
+ -t 0.553268 -s 2 -d 4 -p ack -e 40 -c 1 -i 53 -a 1 -x {2.0 1.1 6 ------- null}