V -t * -v 1.0a5 -a 0
A -t * -n 1 -p 0 -o 0x7fffffff -c 30 -a 1
A -t * -h 1 -m 1073741823 -s 0
c -t * -i 0 -n Red
c -t * -i 1 -n Blue
n -t * -a 4 -s 4 -S UP -v circle -c black -i black
n -t * -a 0 -s 0 -S UP -v circle -c black -i black
n -t * -a 5 -s 5 -S UP -v circle -c black -i black
n -t * -a 1 -s 1 -S UP -v circle -c black -i black
n -t * -a 2 -s 2 -S UP -v circle -c black -i black
n -t * -a 3 -s 3 -S UP -v circle -c black -i black
l -t * -s 0 -d 2 -S UP -r 1000000 -D 0.01 -c black
l -t * -s 1 -d 2 -S UP -r 512000 -D 0.01 -c black
l -t * -s 2 -d 3 -S UP -r 1000000 -D 0.01 -c black
l -t * -s 3 -d 4 -S UP -r 512000 -D 0.01 -c black
l -t * -s 3 -d 5 -S UP -r 512000 -D 0.01 -c black
+ -t 0.000169788487334637 -s 0 -d 2 -p rtProtoDV -e 6 -c 0 -i 0 -a 0 -x {0.2 2.1 -1 ------- null}
- -t 0.000169788487334637 -s 0 -d 2 -p rtProtoDV -e 6 -c 0 -i 0 -a 0 -x {0.2 2.1 -1 ------- null}
h -t 0.000169788487334637 -s 0 -d 2 -p rtProtoDV -e 6 -c 0 -i 0 -a 0 -x {0.2 2.1 -1 ------- null}
+ -t 0.00710233021858257 -s 2 -d 0 -p rtProtoDV -e 6 -c 0 -i 1 -a 0 -x {2.1 0.2 -1 ------- null}
- -t 0.00710233021858257 -s 2 -d 0 -p rtProtoDV -e 6 -c 0 -i 1 -a 0 -x {2.1 0.2 -1 ------- null}
h -t 0.00710233021858257 -s 2 -d 0 -p rtProtoDV -e 6 -c 0 -i 1 -a 0 -x {2.1 0.2 -1 ------- null}
+ -t 0.00710233021858257 -s 2 -d 1 -p rtProtoDV -e 6 -c 0 -i 2 -a 0 -x {2.1 1.2 -1 ------- null}
- -t 0.00710233021858257 -s 2 -d 1 -p rtProtoDV -e 6 -c 0 -i 2 -a 0 -x {2.1 1.2 -1 ------- null}
h -t 0.00710233021858257 -s 2 -d 1 -p rtProtoDV -e 6 -c 0 -i 2 -a 0 -x {2.1 1.2 -1 ------- null}
+ -t 0.00710233021858257 -s 2 -d 3 -p rtProtoDV -e 6 -c 0 -i 3 -a 0 -x {2.1 3.1 -1 ------- null}
- -t 0.00710233021858257 -s 2 -d 3 -p rtProtoDV -e 6 -c 0 -i 3 -a 0 -x {2.1 3.1 -1 ------- null}
h -t 0.00710233021858257 -s 2 -d 3 -p rtProtoDV -e 6 -c 0 -i 3 -a 0 -x {2.1 3.1 -1 ------- null}
r -t 0.0102177884873346 -s 0 -d 2 -p rtProtoDV -e 6 -c 0 -i 0 -a 0 -x {0.2 2.1 -1 ------- null}
r -t 0.0171503302185826 -s 2 -d 0 -p rtProtoDV -e 6 -c 0 -i 1 -a 0 -x {2.1 0.2 -1 ------- null}
+ -t 0.0171503302185826 -s 0 -d 2 -p rtProtoDV -e 6 -c 0 -i 4 -a 0 -x {0.2 2.1 -1 ------- null}
- -t 0.0171503302185826 -s 0 -d 2 -p rtProtoDV -e 6 -c 0 -i 4 -a 0 -x {0.2 2.1 -1 ------- null}
h -t 0.0171503302185826 -s 0 -d 2 -p rtProtoDV -e 6 -c 0 -i 4 -a 0 -x {0.2 2.1 -1 ------- null}
r -t 0.0171503302185826 -s 2 -d 3 -p rtProtoDV -e 6 -c 0 -i 3 -a 0 -x {2.1 3.1 -1 ------- null}
+ -t 0.0171503302185826 -s 3 -d 2 -p rtProtoDV -e 6 -c 0 -i 5 -a 0 -x {3.1 2.1 -1 ------- null}
- -t 0.0171503302185826 -s 3 -d 2 -p rtProtoDV -e 6 -c 0 -i 5 -a 0 -x {3.1 2.1 -1 ------- null}
h -t 0.0171503302185826 -s 3 -d 2 -p rtProtoDV -e 6 -c 0 -i 5 -a 0 -x {3.1 2.1 -1 ------- null}
+ -t 0.0171503302185826 -s 3 -d 4 -p rtProtoDV -e 6 -c 0 -i 6 -a 0 -x {3.1 4.2 -1 ------- null}
- -t 0.0171503302185826 -s 3 -d 4 -p rtProtoDV -e 6 -c 0 -i 6 -a 0 -x {3.1 4.2 -1 ------- null}
h -t 0.0171503302185826 -s 3 -d 4 -p rtProtoDV -e 6 -c 0 -i 6 -a 0 -x {3.1 4.2 -1 ------- null}
+ -t 0.0171503302185826 -s 3 -d 5 -p rtProtoDV -e 6 -c 0 -i 7 -a 0 -x {3.1 5.2 -1 ------- null}
- -t 0.0171503302185826 -s 3 -d 5 -p rtProtoDV -e 6 -c 0 -i 7 -a 0 -x {3.1 5.2 -1 ------- null}
h -t 0.0171503302185826 -s 3 -d 5 -p rtProtoDV -e 6 -c 0 -i 7 -a 0 -x {3.1 5.2 -1 ------- null}
r -t 0.0171960802185826 -s 2 -d 1 -p rtProtoDV -e 6 -c 0 -i 2 -a 0 -x {2.1 1.2 -1 ------- null}
+ -t 0.0171960802185826 -s 1 -d 2 -p rtProtoDV -e 6 -c 0 -i 8 -a 0 -x {1.2 2.1 -1 ------- null}
- -t 0.0171960802185826 -s 1 -d 2 -p rtProtoDV -e 6 -c 0 -i 8 -a 0 -x {1.2 2.1 -1 ------- null}
h -t 0.0171960802185826 -s 1 -d 2 -p rtProtoDV -e 6 -c 0 -i 8 -a 0 -x {1.2 2.1 -1 ------- null}
r -t 0.0271983302185826 -s 0 -d 2 -p rtProtoDV -e 6 -c 0 -i 4 -a 0 -x {0.2 2.1 -1 ------- null}
r -t 0.0271983302185826 -s 3 -d 2 -p rtProtoDV -e 6 -c 0 -i 5 -a 0 -x {3.1 2.1 -1 ------- null}
+ -t 0.0271983302185826 -s 2 -d 0 -p rtProtoDV -e 6 -c 0 -i 9 -a 0 -x {2.1 0.2 -1 ------- null}
- -t 0.0271983302185826 -s 2 -d 0 -p rtProtoDV -e 6 -c 0 -i 9 -a 0 -x {2.1 0.2 -1 ------- null}
h -t 0.0271983302185826 -s 2 -d 0 -p rtProtoDV -e 6 -c 0 -i 9 -a 0 -x {2.1 0.2 -1 ------- null}
+ -t 0.0271983302185826 -s 2 -d 1 -p rtProtoDV -e 6 -c 0 -i 10 -a 0 -x {2.1 1.2 -1 ------- null}
- -t 0.0271983302185826 -s 2 -d 1 -p rtProtoDV -e 6 -c 0 -i 10 -a 0 -x {2.1 1.2 -1 ------- null}
h -t 0.0271983302185826 -s 2 -d 1 -p rtProtoDV -e 6 -c 0 -i 10 -a 0 -x {2.1 1.2 -1 ------- null}
+ -t 0.0271983302185826 -s 2 -d 3 -p rtProtoDV -e 6 -c 0 -i 11 -a 0 -x {2.1 3.1 -1 ------- null}
- -t 0.0271983302185826 -s 2 -d 3 -p rtProtoDV -e 6 -c 0 -i 11 -a 0 -x {2.1 3.1 -1 ------- null}
h -t 0.0271983302185826 -s 2 -d 3 -p rtProtoDV -e 6 -c 0 -i 11 -a 0 -x {2.1 3.1 -1 ------- null}
r -t 0.0272440802185826 -s 3 -d 4 -p rtProtoDV -e 6 -c 0 -i 6 -a 0 -x {3.1 4.2 -1 ------- null}
+ -t 0.0272440802185826 -s 4 -d 3 -p rtProtoDV -e 6 -c 0 -i 12 -a 0 -x {4.2 3.1 -1 ------- null}
- -t 0.0272440802185826 -s 4 -d 3 -p rtProtoDV -e 6 -c 0 -i 12 -a 0 -x {4.2 3.1 -1 ------- null}
h -t 0.0272440802185826 -s 4 -d 3 -p rtProtoDV -e 6 -c 0 -i 12 -a 0 -x {4.2 3.1 -1 ------- null}
r -t 0.0272440802185826 -s 3 -d 5 -p rtProtoDV -e 6 -c 0 -i 7 -a 0 -x {3.1 5.2 -1 ------- null}
+ -t 0.0272440802185826 -s 5 -d 3 -p rtProtoDV -e 6 -c 0 -i 13 -a 0 -x {5.2 3.1 -1 ------- null}
- -t 0.0272440802185826 -s 5 -d 3 -p rtProtoDV -e 6 -c 0 -i 13 -a 0 -x {5.2 3.1 -1 ------- null}
h -t 0.0272440802185826 -s 5 -d 3 -p rtProtoDV -e 6 -c 0 -i 13 -a 0 -x {5.2 3.1 -1 ------- null}
r -t 0.0272898302185826 -s 1 -d 2 -p rtProtoDV -e 6 -c 0 -i 8 -a 0 -x {1.2 2.1 -1 ------- null}
r -t 0.0372463302185826 -s 2 -d 0 -p rtProtoDV -e 6 -c 0 -i 9 -a 0 -x {2.1 0.2 -1 ------- null}
+ -t 0.0372463302185826 -s 0 -d 2 -p rtProtoDV -e 6 -c 0 -i 14 -a 0 -x {0.2 2.1 -1 ------- null}
- -t 0.0372463302185826 -s 0 -d 2 -p rtProtoDV -e 6 -c 0 -i 14 -a 0 -x {0.2 2.1 -1 ------- null}
h -t 0.0372463302185826 -s 0 -d 2 -p rtProtoDV -e 6 -c 0 -i 14 -a 0 -x {0.2 2.1 -1 ------- null}
r -t 0.0372463302185826 -s 2 -d 3 -p rtProtoDV -e 6 -c 0 -i 11 -a 0 -x {2.1 3.1 -1 ------- null}
r -t 0.0372920802185826 -s 2 -d 1 -p rtProtoDV -e 6 -c 0 -i 10 -a 0 -x {2.1 1.2 -1 ------- null}
+ -t 0.0372920802185826 -s 1 -d 2 -p rtProtoDV -e 6 -c 0 -i 15 -a 0 -x {1.2 2.1 -1 ------- null}
- -t 0.0372920802185826 -s 1 -d 2 -p rtProtoDV -e 6 -c 0 -i 15 -a 0 -x {1.2 2.1 -1 ------- null}
h -t 0.0372920802185826 -s 1 -d 2 -p rtProtoDV -e 6 -c 0 -i 15 -a 0 -x {1.2 2.1 -1 ------- null}
r -t 0.0373378302185826 -s 4 -d 3 -p rtProtoDV -e 6 -c 0 -i 12 -a 0 -x {4.2 3.1 -1 ------- null}
r -t 0.0373378302185826 -s 5 -d 3 -p rtProtoDV -e 6 -c 0 -i 13 -a 0 -x {5.2 3.1 -1 ------- null}
+ -t 0.04406133552271 -s 3 -d 2 -p rtProtoDV -e 6 -c 0 -i 16 -a 0 -x {3.1 2.1 -1 ------- null}
- -t 0.04406133552271 -s 3 -d 2 -p rtProtoDV -e 6 -c 0 -i 16 -a 0 -x {3.1 2.1 -1 ------- null}
h -t 0.04406133552271 -s 3 -d 2 -p rtProtoDV -e 6 -c 0 -i 16 -a 0 -x {3.1 2.1 -1 ------- null}
+ -t 0.04406133552271 -s 3 -d 4 -p rtProtoDV -e 6 -c 0 -i 17 -a 0 -x {3.1 4.2 -1 ------- null}
- -t 0.04406133552271 -s 3 -d 4 -p rtProtoDV -e 6 -c 0 -i 17 -a 0 -x {3.1 4.2 -1 ------- null}
h -t 0.04406133552271 -s 3 -d 4 -p rtProtoDV -e 6 -c 0 -i 17 -a 0 -x {3.1 4.2 -1 ------- null}
+ -t 0.04406133552271 -s 3 -d 5 -p rtProtoDV -e 6 -c 0 -i 18 -a 0 -x {3.1 5.2 -1 ------- null}
- -t 0.04406133552271 -s 3 -d 5 -p rtProtoDV -e 6 -c 0 -i 18 -a 0 -x {3.1 5.2 -1 ------- null}
h -t 0.04406133552271 -s 3 -d 5 -p rtProtoDV -e 6 -c 0 -i 18 -a 0 -x {3.1 5.2 -1 ------- null}
r -t 0.0472943302185826 -s 0 -d 2 -p rtProtoDV -e 6 -c 0 -i 14 -a 0 -x {0.2 2.1 -1 ------- null}
r -t 0.0473858302185826 -s 1 -d 2 -p rtProtoDV -e 6 -c 0 -i 15 -a 0 -x {1.2 2.1 -1 ------- null}
r -t 0.05410933552271 -s 3 -d 2 -p rtProtoDV -e 6 -c 0 -i 16 -a 0 -x {3.1 2.1 -1 ------- null}
r -t 0.05415508552271 -s 3 -d 4 -p rtProtoDV -e 6 -c 0 -i 17 -a 0 -x {3.1 4.2 -1 ------- null}
r -t 0.05415508552271 -s 3 -d 5 -p rtProtoDV -e 6 -c 0 -i 18 -a 0 -x {3.1 5.2 -1 ------- null}
+ -t 0.1 -s 0 -d 2 -p tcp -e 40 -c 0 -i 19 -a 0 -x {0.0 4.0 0 ------- null}
- -t 0.1 -s 0 -d 2 -p tcp -e 40 -c 0 -i 19 -a 0 -x {0.0 4.0 0 ------- null}
h -t 0.1 -s 0 -d 2 -p tcp -e 40 -c 0 -i 19 -a 0 -x {0.0 4.0 -1 ------- null}
+ -t 0.1 -s 5 -d 3 -p tcp -e 40 -c 1 -i 20 -a 1 -x {5.0 1.0 0 ------- null}
- -t 0.1 -s 5 -d 3 -p tcp -e 40 -c 1 -i 20 -a 1 -x {5.0 1.0 0 ------- null}
h -t 0.1 -s 5 -d 3 -p tcp -e 40 -c 1 -i 20 -a 1 -x {5.0 1.0 -1 ------- null}
r -t 0.11032 -s 0 -d 2 -p tcp -e 40 -c 0 -i 19 -a 0 -x {0.0 4.0 0 ------- null}
+ -t 0.11032 -s 2 -d 3 -p tcp -e 40 -c 0 -i 19 -a 0 -x {0.0 4.0 0 ------- null}
- -t 0.11032 -s 2 -d 3 -p tcp -e 40 -c 0 -i 19 -a 0 -x {0.0 4.0 0 ------- null}
h -t 0.11032 -s 2 -d 3 -p tcp -e 40 -c 0 -i 19 -a 0 -x {0.0 4.0 -1 ------- null}
r -t 0.110625 -s 5 -d 3 -p tcp -e 40 -c 1 -i 20 -a 1 -x {5.0 1.0 0 ------- null}
+ -t 0.110625 -s 3 -d 2 -p tcp -e 40 -c 1 -i 20 -a 1 -x {5.0 1.0 0 ------- null}
- -t 0.110625 -s 3 -d 2 -p tcp -e 40 -c 1 -i 20 -a 1 -x {5.0 1.0 0 ------- null}
h -t 0.110625 -s 3 -d 2 -p tcp -e 40 -c 1 -i 20 -a 1 -x {5.0 1.0 -1 ------- null}
r -t 0.12064 -s 2 -d 3 -p tcp -e 40 -c 0 -i 19 -a 0 -x {0.0 4.0 0 ------- null}
+ -t 0.12064 -s 3 -d 4 -p tcp -e 40 -c 0 -i 19 -a 0 -x {0.0 4.0 0 ------- null}
- -t 0.12064 -s 3 -d 4 -p tcp -e 40 -c 0 -i 19 -a 0 -x {0.0 4.0 0 ------- null}
h -t 0.12064 -s 3 -d 4 -p tcp -e 40 -c 0 -i 19 -a 0 -x {0.0 4.0 -1 ------- null}
r -t 0.120945 -s 3 -d 2 -p tcp -e 40 -c 1 -i 20 -a 1 -x {5.0 1.0 0 ------- null}
+ -t 0.120945 -s 2 -d 1 -p tcp -e 40 -c 1 -i 20 -a 1 -x {5.0 1.0 0 ------- null}
- -t 0.120945 -s 2 -d 1 -p tcp -e 40 -c 1 -i 20 -a 1 -x {5.0 1.0 0 ------- null}
h -t 0.120945 -s 2 -d 1 -p tcp -e 40 -c 1 -i 20 -a 1 -x {5.0 1.0 -1 ------- null}
r -t 0.131265 -s 3 -d 4 -p tcp -e 40 -c 0 -i 19 -a 0 -x {0.0 4.0 0 ------- null}
+ -t 0.131265 -s 4 -d 3 -p ack -e 40 -c 0 -i 21 -a 0 -x {4.0 0.0 0 ------- null}
- -t 0.131265 -s 4 -d 3 -p ack -e 40 -c 0 -i 21 -a 0 -x {4.0 0.0 0 ------- null}
h -t 0.131265 -s 4 -d 3 -p ack -e 40 -c 0 -i 21 -a 0 -x {4.0 0.0 -1 ------- null}
r -t 0.13157 -s 2 -d 1 -p tcp -e 40 -c 1 -i 20 -a 1 -x {5.0 1.0 0 ------- null}
+ -t 0.13157 -s 1 -d 2 -p ack -e 40 -c 1 -i 22 -a 1 -x {1.0 5.0 0 ------- null}
- -t 0.13157 -s 1 -d 2 -p ack -e 40 -c 1 -i 22 -a 1 -x {1.0 5.0 0 ------- null}
h -t 0.13157 -s 1 -d 2 -p ack -e 40 -c 1 -i 22 -a 1 -x {1.0 5.0 -1 ------- null}
r -t 0.14189 -s 4 -d 3 -p ack -e 40 -c 0 -i 21 -a 0 -x {4.0 0.0 0 ------- null}
+ -t 0.14189 -s 3 -d 2 -p ack -e 40 -c 0 -i 21 -a 0 -x {4.0 0.0 0 ------- null}
- -t 0.14189 -s 3 -d 2 -p ack -e 40 -c 0 -i 21 -a 0 -x {4.0 0.0 0 ------- null}
h -t 0.14189 -s 3 -d 2 -p ack -e 40 -c 0 -i 21 -a 0 -x {4.0 0.0 -1 ------- null}
r -t 0.142195 -s 1 -d 2 -p ack -e 40 -c 1 -i 22 -a 1 -x {1.0 5.0 0 ------- null}
+ -t 0.142195 -s 2 -d 3 -p ack -e 40 -c 1 -i 22 -a 1 -x {1.0 5.0 0 ------- null}
- -t 0.142195 -s 2 -d 3 -p ack -e 40 -c 1 -i 22 -a 1 -x {1.0 5.0 0 ------- null}
h -t 0.142195 -s 2 -d 3 -p ack -e 40 -c 1 -i 22 -a 1 -x {1.0 5.0 -1 ------- null}
r -t 0.15221 -s 3 -d 2 -p ack -e 40 -c 0 -i 21 -a 0 -x {4.0 0.0 0 ------- null}
+ -t 0.15221 -s 2 -d 0 -p ack -e 40 -c 0 -i 21 -a 0 -x {4.0 0.0 0 ------- null}
- -t 0.15221 -s 2 -d 0 -p ack -e 40 -c 0 -i 21 -a 0 -x {4.0 0.0 0 ------- null}
h -t 0.15221 -s 2 -d 0 -p ack -e 40 -c 0 -i 21 -a 0 -x {4.0 0.0 -1 ------- null}
r -t 0.152515 -s 2 -d 3 -p ack -e 40 -c 1 -i 22 -a 1 -x {1.0 5.0 0 ------- null}
+ -t 0.152515 -s 3 -d 5 -p ack -e 40 -c 1 -i 22 -a 1 -x {1.0 5.0 0 ------- null}
- -t 0.152515 -s 3 -d 5 -p ack -e 40 -c 1 -i 22 -a 1 -x {1.0 5.0 0 ------- null}
h -t 0.152515 -s 3 -d 5 -p ack -e 40 -c 1 -i 22 -a 1 -x {1.0 5.0 -1 ------- null}
r -t 0.16253 -s 2 -d 0 -p ack -e 40 -c 0 -i 21 -a 0 -x {4.0 0.0 0 ------- null}
+ -t 0.16253 -s 0 -d 2 -p tcp -e 1040 -c 0 -i 23 -a 0 -x {0.0 4.0 1 ------- null}
- -t 0.16253 -s 0 -d 2 -p tcp -e 1040 -c 0 -i 23 -a 0 -x {0.0 4.0 1 ------- null}
h -t 0.16253 -s 0 -d 2 -p tcp -e 1040 -c 0 -i 23 -a 0 -x {0.0 4.0 -1 ------- null}
+ -t 0.16253 -s 0 -d 2 -p tcp -e 1040 -c 0 -i 24 -a 0 -x {0.0 4.0 2 ------- null}
r -t 0.16314 -s 3 -d 5 -p ack -e 40 -c 1 -i 22 -a 1 -x {1.0 5.0 0 ------- null}
+ -t 0.16314 -s 5 -d 3 -p tcp -e 1040 -c 1 -i 25 -a 1 -x {5.0 1.0 1 ------- null}
- -t 0.16314 -s 5 -d 3 -p tcp -e 1040 -c 1 -i 25 -a 1 -x {5.0 1.0 1 ------- null}
h -t 0.16314 -s 5 -d 3 -p tcp -e 1040 -c 1 -i 25 -a 1 -x {5.0 1.0 -1 ------- null}
+ -t 0.16314 -s 5 -d 3 -p tcp -e 1040 -c 1 -i 26 -a 1 -x {5.0 1.0 2 ------- null}
- -t 0.17085 -s 0 -d 2 -p tcp -e 1040 -c 0 -i 24 -a 0 -x {0.0 4.0 2 ------- null}
h -t 0.17085 -s 0 -d 2 -p tcp -e 1040 -c 0 -i 24 -a 0 -x {0.0 4.0 -1 ------- null}
- -t 0.17939 -s 5 -d 3 -p tcp -e 1040 -c 1 -i 26 -a 1 -x {5.0 1.0 2 ------- null}
h -t 0.17939 -s 5 -d 3 -p tcp -e 1040 -c 1 -i 26 -a 1 -x {5.0 1.0 -1 ------- null}
r -t 0.18085 -s 0 -d 2 -p tcp -e 1040 -c 0 -i 23 -a 0 -x {0.0 4.0 1 ------- null}
+ -t 0.18085 -s 2 -d 3 -p tcp -e 1040 -c 0 -i 23 -a 0 -x {0.0 4.0 1 ------- null}
- -t 0.18085 -s 2 -d 3 -p tcp -e 1040 -c 0 -i 23 -a 0 -x {0.0 4.0 1 ------- null}
h -t 0.18085 -s 2 -d 3 -p tcp -e 1040 -c 0 -i 23 -a 0 -x {0.0 4.0 -1 ------- null}
r -t 0.18917 -s 0 -d 2 -p tcp -e 1040 -c 0 -i 24 -a 0 -x {0.0 4.0 2 ------- null}
+ -t 0.18917 -s 2 -d 3 -p tcp -e 1040 -c 0 -i 24 -a 0 -x {0.0 4.0 2 ------- null}
- -t 0.18917 -s 2 -d 3 -p tcp -e 1040 -c 0 -i 24 -a 0 -x {0.0 4.0 2 ------- null}
h -t 0.18917 -s 2 -d 3 -p tcp -e 1040 -c 0 -i 24 -a 0 -x {0.0 4.0 -1 ------- null}
r -t 0.18939 -s 5 -d 3 -p tcp -e 1040 -c 1 -i 25 -a 1 -x {5.0 1.0 1 ------- null}
+ -t 0.18939 -s 3 -d 2 -p tcp -e 1040 -c 1 -i 25 -a 1 -x {5.0 1.0 1 ------- null}
- -t 0.18939 -s 3 -d 2 -p tcp -e 1040 -c 1 -i 25 -a 1 -x {5.0 1.0 1 ------- null}
h -t 0.18939 -s 3 -d 2 -p tcp -e 1040 -c 1 -i 25 -a 1 -x {5.0 1.0 -1 ------- null}
r -t 0.19917 -s 2 -d 3 -p tcp -e 1040 -c 0 -i 23 -a 0 -x {0.0 4.0 1 ------- null}
+ -t 0.19917 -s 3 -d 4 -p tcp -e 1040 -c 0 -i 23 -a 0 -x {0.0 4.0 1 ------- null}
- -t 0.19917 -s 3 -d 4 -p tcp -e 1040 -c 0 -i 23 -a 0 -x {0.0 4.0 1 ------- null}
h -t 0.19917 -s 3 -d 4 -p tcp -e 1040 -c 0 -i 23 -a 0 -x {0.0 4.0 -1 ------- null}
r -t 0.20564 -s 5 -d 3 -p tcp -e 1040 -c 1 -i 26 -a 1 -x {5.0 1.0 2 ------- null}
+ -t 0.20564 -s 3 -d 2 -p tcp -e 1040 -c 1 -i 26 -a 1 -x {5.0 1.0 2 ------- null}
- -t 0.20564 -s 3 -d 2 -p tcp -e 1040 -c 1 -i 26 -a 1 -x {5.0 1.0 2 ------- null}
h -t 0.20564 -s 3 -d 2 -p tcp -e 1040 -c 1 -i 26 -a 1 -x {5.0 1.0 -1 ------- null}
r -t 0.20749 -s 2 -d 3 -p tcp -e 1040 -c 0 -i 24 -a 0 -x {0.0 4.0 2 ------- null}
+ -t 0.20749 -s 3 -d 4 -p tcp -e 1040 -c 0 -i 24 -a 0 -x {0.0 4.0 2 ------- null}
r -t 0.20771 -s 3 -d 2 -p tcp -e 1040 -c 1 -i 25 -a 1 -x {5.0 1.0 1 ------- null}
+ -t 0.20771 -s 2 -d 1 -p tcp -e 1040 -c 1 -i 25 -a 1 -x {5.0 1.0 1 ------- null}
- -t 0.20771 -s 2 -d 1 -p tcp -e 1040 -c 1 -i 25 -a 1 -x {5.0 1.0 1 ------- null}
h -t 0.20771 -s 2 -d 1 -p tcp -e 1040 -c 1 -i 25 -a 1 -x {5.0 1.0 -1 ------- null}
- -t 0.21542 -s 3 -d 4 -p tcp -e 1040 -c 0 -i 24 -a 0 -x {0.0 4.0 2 ------- null}
h -t 0.21542 -s 3 -d 4 -p tcp -e 1040 -c 0 -i 24 -a 0 -x {0.0 4.0 -1 ------- null}
+ -t 0.22058669092161 -s 4 -d 3 -p rtProtoDV -e 6 -c 0 -i 27 -a 0 -x {4.2 3.1 -1 ------- null}
- -t 0.22058669092161 -s 4 -d 3 -p rtProtoDV -e 6 -c 0 -i 27 -a 0 -x {4.2 3.1 -1 ------- null}
h -t 0.22058669092161 -s 4 -d 3 -p rtProtoDV -e 6 -c 0 -i 27 -a 0 -x {4.2 3.1 -1 ------- null}
r -t 0.22396 -s 3 -d 2 -p tcp -e 1040 -c 1 -i 26 -a 1 -x {5.0 1.0 2 ------- null}
+ -t 0.22396 -s 2 -d 1 -p tcp -e 1040 -c 1 -i 26 -a 1 -x {5.0 1.0 2 ------- null}
- -t 0.22396 -s 2 -d 1 -p tcp -e 1040 -c 1 -i 26 -a 1 -x {5.0 1.0 2 ------- null}
h -t 0.22396 -s 2 -d 1 -p tcp -e 1040 -c 1 -i 26 -a 1 -x {5.0 1.0 -1 ------- null}
r -t 0.22542 -s 3 -d 4 -p tcp -e 1040 -c 0 -i 23 -a 0 -x {0.0 4.0 1 ------- null}
+ -t 0.22542 -s 4 -d 3 -p ack -e 40 -c 0 -i 28 -a 0 -x {4.0 0.0 1 ------- null}
- -t 0.22542 -s 4 -d 3 -p ack -e 40 -c 0 -i 28 -a 0 -x {4.0 0.0 1 ------- null}
h -t 0.22542 -s 4 -d 3 -p ack -e 40 -c 0 -i 28 -a 0 -x {4.0 0.0 -1 ------- null}
r -t 0.23068044092161 -s 4 -d 3 -p rtProtoDV -e 6 -c 0 -i 27 -a 0 -x {4.2 3.1 -1 ------- null}
r -t 0.23396 -s 2 -d 1 -p tcp -e 1040 -c 1 -i 25 -a 1 -x {5.0 1.0 1 ------- null}
+ -t 0.23396 -s 1 -d 2 -p ack -e 40 -c 1 -i 29 -a 1 -x {1.0 5.0 1 ------- null}
- -t 0.23396 -s 1 -d 2 -p ack -e 40 -c 1 -i 29 -a 1 -x {1.0 5.0 1 ------- null}
h -t 0.23396 -s 1 -d 2 -p ack -e 40 -c 1 -i 29 -a 1 -x {1.0 5.0 -1 ------- null}
r -t 0.236045 -s 4 -d 3 -p ack -e 40 -c 0 -i 28 -a 0 -x {4.0 0.0 1 ------- null}
+ -t 0.236045 -s 3 -d 2 -p ack -e 40 -c 0 -i 28 -a 0 -x {4.0 0.0 1 ------- null}
- -t 0.236045 -s 3 -d 2 -p ack -e 40 -c 0 -i 28 -a 0 -x {4.0 0.0 1 ------- null}
h -t 0.236045 -s 3 -d 2 -p ack -e 40 -c 0 -i 28 -a 0 -x {4.0 0.0 -1 ------- null}
r -t 0.24167 -s 3 -d 4 -p tcp -e 1040 -c 0 -i 24 -a 0 -x {0.0 4.0 2 ------- null}
+ -t 0.24167 -s 4 -d 3 -p ack -e 40 -c 0 -i 30 -a 0 -x {4.0 0.0 2 ------- null}
- -t 0.24167 -s 4 -d 3 -p ack -e 40 -c 0 -i 30 -a 0 -x {4.0 0.0 2 ------- null}
h -t 0.24167 -s 4 -d 3 -p ack -e 40 -c 0 -i 30 -a 0 -x {4.0 0.0 -1 ------- null}
r -t 0.244585 -s 1 -d 2 -p ack -e 40 -c 1 -i 29 -a 1 -x {1.0 5.0 1 ------- null}
+ -t 0.244585 -s 2 -d 3 -p ack -e 40 -c 1 -i 29 -a 1 -x {1.0 5.0 1 ------- null}
- -t 0.244585 -s 2 -d 3 -p ack -e 40 -c 1 -i 29 -a 1 -x {1.0 5.0 1 ------- null}
h -t 0.244585 -s 2 -d 3 -p ack -e 40 -c 1 -i 29 -a 1 -x {1.0 5.0 -1 ------- null}
r -t 0.246365 -s 3 -d 2 -p ack -e 40 -c 0 -i 28 -a 0 -x {4.0 0.0 1 ------- null}
+ -t 0.246365 -s 2 -d 0 -p ack -e 40 -c 0 -i 28 -a 0 -x {4.0 0.0 1 ------- null}
- -t 0.246365 -s 2 -d 0 -p ack -e 40 -c 0 -i 28 -a 0 -x {4.0 0.0 1 ------- null}
h -t 0.246365 -s 2 -d 0 -p ack -e 40 -c 0 -i 28 -a 0 -x {4.0 0.0 -1 ------- null}
r -t 0.25021 -s 2 -d 1 -p tcp -e 1040 -c 1 -i 26 -a 1 -x {5.0 1.0 2 ------- null}
+ -t 0.25021 -s 1 -d 2 -p ack -e 40 -c 1 -i 31 -a 1 -x {1.0 5.0 2 ------- null}
- -t 0.25021 -s 1 -d 2 -p ack -e 40 -c 1 -i 31 -a 1 -x {1.0 5.0 2 ------- null}
h -t 0.25021 -s 1 -d 2 -p ack -e 40 -c 1 -i 31 -a 1 -x {1.0 5.0 -1 ------- null}
r -t 0.252295 -s 4 -d 3 -p ack -e 40 -c 0 -i 30 -a 0 -x {4.0 0.0 2 ------- null}
+ -t 0.252295 -s 3 -d 2 -p ack -e 40 -c 0 -i 30 -a 0 -x {4.0 0.0 2 ------- null}
- -t 0.252295 -s 3 -d 2 -p ack -e 40 -c 0 -i 30 -a 0 -x {4.0 0.0 2 ------- null}
h -t 0.252295 -s 3 -d 2 -p ack -e 40 -c 0 -i 30 -a 0 -x {4.0 0.0 -1 ------- null}
r -t 0.254905 -s 2 -d 3 -p ack -e 40 -c 1 -i 29 -a 1 -x {1.0 5.0 1 ------- null}
+ -t 0.254905 -s 3 -d 5 -p ack -e 40 -c 1 -i 29 -a 1 -x {1.0 5.0 1 ------- null}
- -t 0.254905 -s 3 -d 5 -p ack -e 40 -c 1 -i 29 -a 1 -x {1.0 5.0 1 ------- null}
h -t 0.254905 -s 3 -d 5 -p ack -e 40 -c 1 -i 29 -a 1 -x {1.0 5.0 -1 ------- null}
r -t 0.256685 -s 2 -d 0 -p ack -e 40 -c 0 -i 28 -a 0 -x {4.0 0.0 1 ------- null}
+ -t 0.256685 -s 0 -d 2 -p tcp -e 1040 -c 0 -i 32 -a 0 -x {0.0 4.0 3 ------- null}
- -t 0.256685 -s 0 -d 2 -p tcp -e 1040 -c 0 -i 32 -a 0 -x {0.0 4.0 3 ------- null}
h -t 0.256685 -s 0 -d 2 -p tcp -e 1040 -c 0 -i 32 -a 0 -x {0.0 4.0 -1 ------- null}
+ -t 0.256685 -s 0 -d 2 -p tcp -e 1040 -c 0 -i 33 -a 0 -x {0.0 4.0 4 ------- null}
r -t 0.260835 -s 1 -d 2 -p ack -e 40 -c 1 -i 31 -a 1 -x {1.0 5.0 2 ------- null}
+ -t 0.260835 -s 2 -d 3 -p ack -e 40 -c 1 -i 31 -a 1 -x {1.0 5.0 2 ------- null}
- -t 0.260835 -s 2 -d 3 -p ack -e 40 -c 1 -i 31 -a 1 -x {1.0 5.0 2 ------- null}
h -t 0.260835 -s 2 -d 3 -p ack -e 40 -c 1 -i 31 -a 1 -x {1.0 5.0 -1 ------- null}
r -t 0.262615 -s 3 -d 2 -p ack -e 40 -c 0 -i 30 -a 0 -x {4.0 0.0 2 ------- null}
+ -t 0.262615 -s 2 -d 0 -p ack -e 40 -c 0 -i 30 -a 0 -x {4.0 0.0 2 ------- null}
- -t 0.262615 -s 2 -d 0 -p ack -e 40 -c 0 -i 30 -a 0 -x {4.0 0.0 2 ------- null}
h -t 0.262615 -s 2 -d 0 -p ack -e 40 -c 0 -i 30 -a 0 -x {4.0 0.0 -1 ------- null}
- -t 0.265005 -s 0 -d 2 -p tcp -e 1040 -c 0 -i 33 -a 0 -x {0.0 4.0 4 ------- null}
h -t 0.265005 -s 0 -d 2 -p tcp -e 1040 -c 0 -i 33 -a 0 -x {0.0 4.0 -1 ------- null}
r -t 0.26553 -s 3 -d 5 -p ack -e 40 -c 1 -i 29 -a 1 -x {1.0 5.0 1 ------- null}
+ -t 0.26553 -s 5 -d 3 -p tcp -e 1040 -c 1 -i 34 -a 1 -x {5.0 1.0 3 ------- null}
- -t 0.26553 -s 5 -d 3 -p tcp -e 1040 -c 1 -i 34 -a 1 -x {5.0 1.0 3 ------- null}
h -t 0.26553 -s 5 -d 3 -p tcp -e 1040 -c 1 -i 34 -a 1 -x {5.0 1.0 -1 ------- null}
+ -t 0.26553 -s 5 -d 3 -p tcp -e 1040 -c 1 -i 35 -a 1 -x {5.0 1.0 4 ------- null}
r -t 0.271155 -s 2 -d 3 -p ack -e 40 -c 1 -i 31 -a 1 -x {1.0 5.0 2 ------- null}
+ -t 0.271155 -s 3 -d 5 -p ack -e 40 -c 1 -i 31 -a 1 -x {1.0 5.0 2 ------- null}
- -t 0.271155 -s 3 -d 5 -p ack -e 40 -c 1 -i 31 -a 1 -x {1.0 5.0 2 ------- null}
h -t 0.271155 -s 3 -d 5 -p ack -e 40 -c 1 -i 31 -a 1 -x {1.0 5.0 -1 ------- null}
r -t 0.272935 -s 2 -d 0 -p ack -e 40 -c 0 -i 30 -a 0 -x {4.0 0.0 2 ------- null}
+ -t 0.272935 -s 0 -d 2 -p tcp -e 1040 -c 0 -i 36 -a 0 -x {0.0 4.0 5 ------- null}
+ -t 0.272935 -s 0 -d 2 -p tcp -e 1040 -c 0 -i 37 -a 0 -x {0.0 4.0 6 ------- null}
- -t 0.273325 -s 0 -d 2 -p tcp -e 1040 -c 0 -i 36 -a 0 -x {0.0 4.0 5 ------- null}
h -t 0.273325 -s 0 -d 2 -p tcp -e 1040 -c 0 -i 36 -a 0 -x {0.0 4.0 -1 ------- null}
r -t 0.275005 -s 0 -d 2 -p tcp -e 1040 -c 0 -i 32 -a 0 -x {0.0 4.0 3 ------- null}
+ -t 0.275005 -s 2 -d 3 -p tcp -e 1040 -c 0 -i 32 -a 0 -x {0.0 4.0 3 ------- null}
- -t 0.275005 -s 2 -d 3 -p tcp -e 1040 -c 0 -i 32 -a 0 -x {0.0 4.0 3 ------- null}
h -t 0.275005 -s 2 -d 3 -p tcp -e 1040 -c 0 -i 32 -a 0 -x {0.0 4.0 -1 ------- null}
+ -t 0.277940357931862 -s 1 -d 2 -p rtProtoDV -e 6 -c 0 -i 38 -a 0 -x {1.2 2.1 -1 ------- null}
- -t 0.277940357931862 -s 1 -d 2 -p rtProtoDV -e 6 -c 0 -i 38 -a 0 -x {1.2 2.1 -1 ------- null}
h -t 0.277940357931862 -s 1 -d 2 -p rtProtoDV -e 6 -c 0 -i 38 -a 0 -x {1.2 2.1 -1 ------- null}
- -t 0.281645 -s 0 -d 2 -p tcp -e 1040 -c 0 -i 37 -a 0 -x {0.0 4.0 6 ------- null}
h -t 0.281645 -s 0 -d 2 -p tcp -e 1040 -c 0 -i 37 -a 0 -x {0.0 4.0 -1 ------- null}
- -t 0.28178 -s 5 -d 3 -p tcp -e 1040 -c 1 -i 35 -a 1 -x {5.0 1.0 4 ------- null}
h -t 0.28178 -s 5 -d 3 -p tcp -e 1040 -c 1 -i 35 -a 1 -x {5.0 1.0 -1 ------- null}
r -t 0.28178 -s 3 -d 5 -p ack -e 40 -c 1 -i 31 -a 1 -x {1.0 5.0 2 ------- null}
+ -t 0.28178 -s 5 -d 3 -p tcp -e 1040 -c 1 -i 39 -a 1 -x {5.0 1.0 5 ------- null}
+ -t 0.28178 -s 5 -d 3 -p tcp -e 1040 -c 1 -i 40 -a 1 -x {5.0 1.0 6 ------- null}
r -t 0.283325 -s 0 -d 2 -p tcp -e 1040 -c 0 -i 33 -a 0 -x {0.0 4.0 4 ------- null}
+ -t 0.283325 -s 2 -d 3 -p tcp -e 1040 -c 0 -i 33 -a 0 -x {0.0 4.0 4 ------- null}
- -t 0.283325 -s 2 -d 3 -p tcp -e 1040 -c 0 -i 33 -a 0 -x {0.0 4.0 4 ------- null}
h -t 0.283325 -s 2 -d 3 -p tcp -e 1040 -c 0 -i 33 -a 0 -x {0.0 4.0 -1 ------- null}
r -t 0.288034107931862 -s 1 -d 2 -p rtProtoDV -e 6 -c 0 -i 38 -a 0 -x {1.2 2.1 -1 ------- null}
r -t 0.291645 -s 0 -d 2 -p tcp -e 1040 -c 0 -i 36 -a 0 -x {0.0 4.0 5 ------- null}
+ -t 0.291645 -s 2 -d 3 -p tcp -e 1040 -c 0 -i 36 -a 0 -x {0.0 4.0 5 ------- null}
- -t 0.291645 -s 2 -d 3 -p tcp -e 1040 -c 0 -i 36 -a 0 -x {0.0 4.0 5 ------- null}
h -t 0.291645 -s 2 -d 3 -p tcp -e 1040 -c 0 -i 36 -a 0 -x {0.0 4.0 -1 ------- null}
r -t 0.29178 -s 5 -d 3 -p tcp -e 1040 -c 1 -i 34 -a 1 -x {5.0 1.0 3 ------- null}
+ -t 0.29178 -s 3 -d 2 -p tcp -e 1040 -c 1 -i 34 -a 1 -x {5.0 1.0 3 ------- null}
- -t 0.29178 -s 3 -d 2 -p tcp -e 1040 -c 1 -i 34 -a 1 -x {5.0 1.0 3 ------- null}
h -t 0.29178 -s 3 -d 2 -p tcp -e 1040 -c 1 -i 34 -a 1 -x {5.0 1.0 -1 ------- null}
r -t 0.293325 -s 2 -d 3 -p tcp -e 1040 -c 0 -i 32 -a 0 -x {0.0 4.0 3 ------- null}
+ -t 0.293325 -s 3 -d 4 -p tcp -e 1040 -c 0 -i 32 -a 0 -x {0.0 4.0 3 ------- null}
- -t 0.293325 -s 3 -d 4 -p tcp -e 1040 -c 0 -i 32 -a 0 -x {0.0 4.0 3 ------- null}
h -t 0.293325 -s 3 -d 4 -p tcp -e 1040 -c 0 -i 32 -a 0 -x {0.0 4.0 -1 ------- null}
- -t 0.29803 -s 5 -d 3 -p tcp -e 1040 -c 1 -i 39 -a 1 -x {5.0 1.0 5 ------- null}
h -t 0.29803 -s 5 -d 3 -p tcp -e 1040 -c 1 -i 39 -a 1 -x {5.0 1.0 -1 ------- null}
r -t 0.299965 -s 0 -d 2 -p tcp -e 1040 -c 0 -i 37 -a 0 -x {0.0 4.0 6 ------- null}
+ -t 0.299965 -s 2 -d 3 -p tcp -e 1040 -c 0 -i 37 -a 0 -x {0.0 4.0 6 ------- null}
- -t 0.299965 -s 2 -d 3 -p tcp -e 1040 -c 0 -i 37 -a 0 -x {0.0 4.0 6 ------- null}
h -t 0.299965 -s 2 -d 3 -p tcp -e 1040 -c 0 -i 37 -a 0 -x {0.0 4.0 -1 ------- null}
r -t 0.301645 -s 2 -d 3 -p tcp -e 1040 -c 0 -i 33 -a 0 -x {0.0 4.0 4 ------- null}
+ -t 0.301645 -s 3 -d 4 -p tcp -e 1040 -c 0 -i 33 -a 0 -x {0.0 4.0 4 ------- null}
r -t 0.30803 -s 5 -d 3 -p tcp -e 1040 -c 1 -i 35 -a 1 -x {5.0 1.0 4 ------- null}
+ -t 0.30803 -s 3 -d 2 -p tcp -e 1040 -c 1 -i 35 -a 1 -x {5.0 1.0 4 ------- null}
- -t 0.30803 -s 3 -d 2 -p tcp -e 1040 -c 1 -i 35 -a 1 -x {5.0 1.0 4 ------- null}
h -t 0.30803 -s 3 -d 2 -p tcp -e 1040 -c 1 -i 35 -a 1 -x {5.0 1.0 -1 ------- null}
- -t 0.309575 -s 3 -d 4 -p tcp -e 1040 -c 0 -i 33 -a 0 -x {0.0 4.0 4 ------- null}
h -t 0.309575 -s 3 -d 4 -p tcp -e 1040 -c 0 -i 33 -a 0 -x {0.0 4.0 -1 ------- null}
r -t 0.309965 -s 2 -d 3 -p tcp -e 1040 -c 0 -i 36 -a 0 -x {0.0 4.0 5 ------- null}
+ -t 0.309965 -s 3 -d 4 -p tcp -e 1040 -c 0 -i 36 -a 0 -x {0.0 4.0 5 ------- null}
r -t 0.3101 -s 3 -d 2 -p tcp -e 1040 -c 1 -i 34 -a 1 -x {5.0 1.0 3 ------- null}
+ -t 0.3101 -s 2 -d 1 -p tcp -e 1040 -c 1 -i 34 -a 1 -x {5.0 1.0 3 ------- null}
- -t 0.3101 -s 2 -d 1 -p tcp -e 1040 -c 1 -i 34 -a 1 -x {5.0 1.0 3 ------- null}
h -t 0.3101 -s 2 -d 1 -p tcp -e 1040 -c 1 -i 34 -a 1 -x {5.0 1.0 -1 ------- null}
- -t 0.31428 -s 5 -d 3 -p tcp -e 1040 -c 1 -i 40 -a 1 -x {5.0 1.0 6 ------- null}
h -t 0.31428 -s 5 -d 3 -p tcp -e 1040 -c 1 -i 40 -a 1 -x {5.0 1.0 -1 ------- null}
r -t 0.318285 -s 2 -d 3 -p tcp -e 1040 -c 0 -i 37 -a 0 -x {0.0 4.0 6 ------- null}
+ -t 0.318285 -s 3 -d 4 -p tcp -e 1040 -c 0 -i 37 -a 0 -x {0.0 4.0 6 ------- null}
r -t 0.319575 -s 3 -d 4 -p tcp -e 1040 -c 0 -i 32 -a 0 -x {0.0 4.0 3 ------- null}
+ -t 0.319575 -s 4 -d 3 -p ack -e 40 -c 0 -i 41 -a 0 -x {4.0 0.0 3 ------- null}
- -t 0.319575 -s 4 -d 3 -p ack -e 40 -c 0 -i 41 -a 0 -x {4.0 0.0 3 ------- null}
h -t 0.319575 -s 4 -d 3 -p ack -e 40 -c 0 -i 41 -a 0 -x {4.0 0.0 -1 ------- null}
r -t 0.32428 -s 5 -d 3 -p tcp -e 1040 -c 1 -i 39 -a 1 -x {5.0 1.0 5 ------- null}
+ -t 0.32428 -s 3 -d 2 -p tcp -e 1040 -c 1 -i 39 -a 1 -x {5.0 1.0 5 ------- null}
- -t 0.32428 -s 3 -d 2 -p tcp -e 1040 -c 1 -i 39 -a 1 -x {5.0 1.0 5 ------- null}
h -t 0.32428 -s 3 -d 2 -p tcp -e 1040 -c 1 -i 39 -a 1 -x {5.0 1.0 -1 ------- null}
- -t 0.325825 -s 3 -d 4 -p tcp -e 1040 -c 0 -i 36 -a 0 -x {0.0 4.0 5 ------- null}
h -t 0.325825 -s 3 -d 4 -p tcp -e 1040 -c 0 -i 36 -a 0 -x {0.0 4.0 -1 ------- null}
r -t 0.32635 -s 3 -d 2 -p tcp -e 1040 -c 1 -i 35 -a 1 -x {5.0 1.0 4 ------- null}
+ -t 0.32635 -s 2 -d 1 -p tcp -e 1040 -c 1 -i 35 -a 1 -x {5.0 1.0 4 ------- null}
- -t 0.32635 -s 2 -d 1 -p tcp -e 1040 -c 1 -i 35 -a 1 -x {5.0 1.0 4 ------- null}
h -t 0.32635 -s 2 -d 1 -p tcp -e 1040 -c 1 -i 35 -a 1 -x {5.0 1.0 -1 ------- null}
r -t 0.3302 -s 4 -d 3 -p ack -e 40 -c 0 -i 41 -a 0 -x {4.0 0.0 3 ------- null}
+ -t 0.3302 -s 3 -d 2 -p ack -e 40 -c 0 -i 41 -a 0 -x {4.0 0.0 3 ------- null}
- -t 0.3326 -s 3 -d 2 -p ack -e 40 -c 0 -i 41 -a 0 -x {4.0 0.0 3 ------- null}
h -t 0.3326 -s 3 -d 2 -p ack -e 40 -c 0 -i 41 -a 0 -x {4.0 0.0 -1 ------- null}
r -t 0.335825 -s 3 -d 4 -p tcp -e 1040 -c 0 -i 33 -a 0 -x {0.0 4.0 4 ------- null}
+ -t 0.335825 -s 4 -d 3 -p ack -e 40 -c 0 -i 42 -a 0 -x {4.0 0.0 4 ------- null}
- -t 0.335825 -s 4 -d 3 -p ack -e 40 -c 0 -i 42 -a 0 -x {4.0 0.0 4 ------- null}
h -t 0.335825 -s 4 -d 3 -p ack -e 40 -c 0 -i 42 -a 0 -x {4.0 0.0 -1 ------- null}
r -t 0.33635 -s 2 -d 1 -p tcp -e 1040 -c 1 -i 34 -a 1 -x {5.0 1.0 3 ------- null}
+ -t 0.33635 -s 1 -d 2 -p ack -e 40 -c 1 -i 43 -a 1 -x {1.0 5.0 3 ------- null}
- -t 0.33635 -s 1 -d 2 -p ack -e 40 -c 1 -i 43 -a 1 -x {1.0 5.0 3 ------- null}
h -t 0.33635 -s 1 -d 2 -p ack -e 40 -c 1 -i 43 -a 1 -x {1.0 5.0 -1 ------- null}
r -t 0.34053 -s 5 -d 3 -p tcp -e 1040 -c 1 -i 40 -a 1 -x {5.0 1.0 6 ------- null}
+ -t 0.34053 -s 3 -d 2 -p tcp -e 1040 -c 1 -i 40 -a 1 -x {5.0 1.0 6 ------- null}
- -t 0.34053 -s 3 -d 2 -p tcp -e 1040 -c 1 -i 40 -a 1 -x {5.0 1.0 6 ------- null}
h -t 0.34053 -s 3 -d 2 -p tcp -e 1040 -c 1 -i 40 -a 1 -x {5.0 1.0 -1 ------- null}
- -t 0.342075 -s 3 -d 4 -p tcp -e 1040 -c 0 -i 37 -a 0 -x {0.0 4.0 6 ------- null}
h -t 0.342075 -s 3 -d 4 -p tcp -e 1040 -c 0 -i 37 -a 0 -x {0.0 4.0 -1 ------- null}
r -t 0.3426 -s 3 -d 2 -p tcp -e 1040 -c 1 -i 39 -a 1 -x {5.0 1.0 5 ------- null}
+ -t 0.3426 -s 2 -d 1 -p tcp -e 1040 -c 1 -i 39 -a 1 -x {5.0 1.0 5 ------- null}
- -t 0.3426 -s 2 -d 1 -p tcp -e 1040 -c 1 -i 39 -a 1 -x {5.0 1.0 5 ------- null}
h -t 0.3426 -s 2 -d 1 -p tcp -e 1040 -c 1 -i 39 -a 1 -x {5.0 1.0 -1 ------- null}
r -t 0.34292 -s 3 -d 2 -p ack -e 40 -c 0 -i 41 -a 0 -x {4.0 0.0 3 ------- null}
+ -t 0.34292 -s 2 -d 0 -p ack -e 40 -c 0 -i 41 -a 0 -x {4.0 0.0 3 ------- null}
- -t 0.34292 -s 2 -d 0 -p ack -e 40 -c 0 -i 41 -a 0 -x {4.0 0.0 3 ------- null}
h -t 0.34292 -s 2 -d 0 -p ack -e 40 -c 0 -i 41 -a 0 -x {4.0 0.0 -1 ------- null}
r -t 0.34645 -s 4 -d 3 -p ack -e 40 -c 0 -i 42 -a 0 -x {4.0 0.0 4 ------- null}
+ -t 0.34645 -s 3 -d 2 -p ack -e 40 -c 0 -i 42 -a 0 -x {4.0 0.0 4 ------- null}
r -t 0.346975 -s 1 -d 2 -p ack -e 40 -c 1 -i 43 -a 1 -x {1.0 5.0 3 ------- null}
+ -t 0.346975 -s 2 -d 3 -p ack -e 40 -c 1 -i 43 -a 1 -x {1.0 5.0 3 ------- null}
- -t 0.346975 -s 2 -d 3 -p ack -e 40 -c 1 -i 43 -a 1 -x {1.0 5.0 3 ------- null}
h -t 0.346975 -s 2 -d 3 -p ack -e 40 -c 1 -i 43 -a 1 -x {1.0 5.0 -1 ------- null}
- -t 0.34885 -s 3 -d 2 -p ack -e 40 -c 0 -i 42 -a 0 -x {4.0 0.0 4 ------- null}
h -t 0.34885 -s 3 -d 2 -p ack -e 40 -c 0 -i 42 -a 0 -x {4.0 0.0 -1 ------- null}
r -t 0.352075 -s 3 -d 4 -p tcp -e 1040 -c 0 -i 36 -a 0 -x {0.0 4.0 5 ------- null}
+ -t 0.352075 -s 4 -d 3 -p ack -e 40 -c 0 -i 44 -a 0 -x {4.0 0.0 5 ------- null}
- -t 0.352075 -s 4 -d 3 -p ack -e 40 -c 0 -i 44 -a 0 -x {4.0 0.0 5 ------- null}
h -t 0.352075 -s 4 -d 3 -p ack -e 40 -c 0 -i 44 -a 0 -x {4.0 0.0 -1 ------- null}