V -t * -v 1.0a5 -a 0
A -t * -n 1 -p 0 -o 0x7fffffff -c 30 -a 1
A -t * -h 1 -m 1073741823 -s 0
c -t * -i 1 -n Pink
c -t * -i 2 -n Yellow
n -t * -a 0 -s 0 -S UP -v circle -c black -i black
n -t * -a 1 -s 1 -S UP -v circle -c black -i black
n -t * -a 2 -s 2 -S UP -v circle -c black -i black
l -t * -s 0 -d 1 -S UP -r 1000000 -D 0.01 -c black
l -t * -s 0 -d 2 -S UP -r 512000 -D 0.01 -c black
+ -t 0.000169788487334637 -s 0 -d 1 -p rtProtoDV -e 3 -c 0 -i 0 -a 0 -x {0.5 1.3 -1 ------- null}
- -t 0.000169788487334637 -s 0 -d 1 -p rtProtoDV -e 3 -c 0 -i 0 -a 0 -x {0.5 1.3 -1 ------- null}
h -t 0.000169788487334637 -s 0 -d 1 -p rtProtoDV -e 3 -c 0 -i 0 -a 0 -x {0.5 1.3 -1 ------- null}
+ -t 0.000169788487334637 -s 0 -d 2 -p rtProtoDV -e 3 -c 0 -i 1 -a 0 -x {0.5 2.3 -1 ------- null}
- -t 0.000169788487334637 -s 0 -d 2 -p rtProtoDV -e 3 -c 0 -i 1 -a 0 -x {0.5 2.3 -1 ------- null}
h -t 0.000169788487334637 -s 0 -d 2 -p rtProtoDV -e 3 -c 0 -i 1 -a 0 -x {0.5 2.3 -1 ------- null}
+ -t 0.00710233021858257 -s 2 -d 0 -p rtProtoDV -e 3 -c 0 -i 2 -a 0 -x {2.3 0.5 -1 ------- null}
- -t 0.00710233021858257 -s 2 -d 0 -p rtProtoDV -e 3 -c 0 -i 2 -a 0 -x {2.3 0.5 -1 ------- null}
h -t 0.00710233021858257 -s 2 -d 0 -p rtProtoDV -e 3 -c 0 -i 2 -a 0 -x {2.3 0.5 -1 ------- null}
r -t 0.0101937884873346 -s 0 -d 1 -p rtProtoDV -e 3 -c 0 -i 0 -a 0 -x {0.5 1.3 -1 ------- null}
+ -t 0.0101937884873346 -s 1 -d 0 -p rtProtoDV -e 3 -c 0 -i 3 -a 0 -x {1.3 0.5 -1 ------- null}
- -t 0.0101937884873346 -s 1 -d 0 -p rtProtoDV -e 3 -c 0 -i 3 -a 0 -x {1.3 0.5 -1 ------- null}
h -t 0.0101937884873346 -s 1 -d 0 -p rtProtoDV -e 3 -c 0 -i 3 -a 0 -x {1.3 0.5 -1 ------- null}
r -t 0.0102166634873346 -s 0 -d 2 -p rtProtoDV -e 3 -c 0 -i 1 -a 0 -x {0.5 2.3 -1 ------- null}
+ -t 0.0102166634873346 -s 2 -d 0 -p rtProtoDV -e 3 -c 0 -i 4 -a 0 -x {2.3 0.5 -1 ------- null}
- -t 0.0102166634873346 -s 2 -d 0 -p rtProtoDV -e 3 -c 0 -i 4 -a 0 -x {2.3 0.5 -1 ------- null}
h -t 0.0102166634873346 -s 2 -d 0 -p rtProtoDV -e 3 -c 0 -i 4 -a 0 -x {2.3 0.5 -1 ------- null}
r -t 0.0171492052185826 -s 2 -d 0 -p rtProtoDV -e 3 -c 0 -i 2 -a 0 -x {2.3 0.5 -1 ------- null}
r -t 0.0202177884873346 -s 1 -d 0 -p rtProtoDV -e 3 -c 0 -i 3 -a 0 -x {1.3 0.5 -1 ------- null}
r -t 0.0202635384873346 -s 2 -d 0 -p rtProtoDV -e 3 -c 0 -i 4 -a 0 -x {2.3 0.5 -1 ------- null}
+ -t 0.1 -s 0 -d 1 -p tcp -e 40 -c 1 -i 5 -a 1 -x {0.0 1.0 0 ------- null}
- -t 0.1 -s 0 -d 1 -p tcp -e 40 -c 1 -i 5 -a 1 -x {0.0 1.0 0 ------- null}
h -t 0.1 -s 0 -d 1 -p tcp -e 40 -c 1 -i 5 -a 1 -x {0.0 1.0 -1 ------- null}
+ -t 0.1 -s 0 -d 2 -p tcp -e 40 -c 2 -i 6 -a 2 -x {0.1 2.0 0 ------- null}
- -t 0.1 -s 0 -d 2 -p tcp -e 40 -c 2 -i 6 -a 2 -x {0.1 2.0 0 ------- null}
h -t 0.1 -s 0 -d 2 -p tcp -e 40 -c 2 -i 6 -a 2 -x {0.1 2.0 -1 ------- null}
+ -t 0.1 -s 1 -d 0 -p tcp -e 40 -c 1 -i 7 -a 1 -x {1.1 0.2 0 ------- null}
- -t 0.1 -s 1 -d 0 -p tcp -e 40 -c 1 -i 7 -a 1 -x {1.1 0.2 0 ------- null}
h -t 0.1 -s 1 -d 0 -p tcp -e 40 -c 1 -i 7 -a 1 -x {1.1 0.2 -1 ------- null}
+ -t 0.1 -s 2 -d 0 -p tcp -e 40 -c 2 -i 8 -a 2 -x {2.1 0.3 0 ------- null}
- -t 0.1 -s 2 -d 0 -p tcp -e 40 -c 2 -i 8 -a 2 -x {2.1 0.3 0 ------- null}
h -t 0.1 -s 2 -d 0 -p tcp -e 40 -c 2 -i 8 -a 2 -x {2.1 0.3 -1 ------- null}
r -t 0.11032 -s 0 -d 1 -p tcp -e 40 -c 1 -i 5 -a 1 -x {0.0 1.0 0 ------- null}
+ -t 0.11032 -s 1 -d 0 -p ack -e 40 -c 1 -i 9 -a 1 -x {1.0 0.0 0 ------- null}
- -t 0.11032 -s 1 -d 0 -p ack -e 40 -c 1 -i 9 -a 1 -x {1.0 0.0 0 ------- null}
h -t 0.11032 -s 1 -d 0 -p ack -e 40 -c 1 -i 9 -a 1 -x {1.0 0.0 -1 ------- null}
r -t 0.11032 -s 1 -d 0 -p tcp -e 40 -c 1 -i 7 -a 1 -x {1.1 0.2 0 ------- null}
+ -t 0.11032 -s 0 -d 1 -p ack -e 40 -c 1 -i 10 -a 1 -x {0.2 1.1 0 ------- null}
- -t 0.11032 -s 0 -d 1 -p ack -e 40 -c 1 -i 10 -a 1 -x {0.2 1.1 0 ------- null}
h -t 0.11032 -s 0 -d 1 -p ack -e 40 -c 1 -i 10 -a 1 -x {0.2 1.1 -1 ------- null}
r -t 0.110625 -s 0 -d 2 -p tcp -e 40 -c 2 -i 6 -a 2 -x {0.1 2.0 0 ------- null}
+ -t 0.110625 -s 2 -d 0 -p ack -e 40 -c 2 -i 11 -a 2 -x {2.0 0.1 0 ------- null}
- -t 0.110625 -s 2 -d 0 -p ack -e 40 -c 2 -i 11 -a 2 -x {2.0 0.1 0 ------- null}
h -t 0.110625 -s 2 -d 0 -p ack -e 40 -c 2 -i 11 -a 2 -x {2.0 0.1 -1 ------- null}
r -t 0.110625 -s 2 -d 0 -p tcp -e 40 -c 2 -i 8 -a 2 -x {2.1 0.3 0 ------- null}
+ -t 0.110625 -s 0 -d 2 -p ack -e 40 -c 2 -i 12 -a 2 -x {0.3 2.1 0 ------- null}
- -t 0.110625 -s 0 -d 2 -p ack -e 40 -c 2 -i 12 -a 2 -x {0.3 2.1 0 ------- null}
h -t 0.110625 -s 0 -d 2 -p ack -e 40 -c 2 -i 12 -a 2 -x {0.3 2.1 -1 ------- null}
r -t 0.12064 -s 1 -d 0 -p ack -e 40 -c 1 -i 9 -a 1 -x {1.0 0.0 0 ------- null}
+ -t 0.12064 -s 0 -d 1 -p tcp -e 1040 -c 1 -i 13 -a 1 -x {0.0 1.0 1 ------- null}
- -t 0.12064 -s 0 -d 1 -p tcp -e 1040 -c 1 -i 13 -a 1 -x {0.0 1.0 1 ------- null}
h -t 0.12064 -s 0 -d 1 -p tcp -e 1040 -c 1 -i 13 -a 1 -x {0.0 1.0 -1 ------- null}
+ -t 0.12064 -s 0 -d 1 -p tcp -e 1040 -c 1 -i 14 -a 1 -x {0.0 1.0 2 ------- null}
r -t 0.12064 -s 0 -d 1 -p ack -e 40 -c 1 -i 10 -a 1 -x {0.2 1.1 0 ------- null}
+ -t 0.12064 -s 1 -d 0 -p tcp -e 1040 -c 1 -i 15 -a 1 -x {1.1 0.2 1 ------- null}
- -t 0.12064 -s 1 -d 0 -p tcp -e 1040 -c 1 -i 15 -a 1 -x {1.1 0.2 1 ------- null}
h -t 0.12064 -s 1 -d 0 -p tcp -e 1040 -c 1 -i 15 -a 1 -x {1.1 0.2 -1 ------- null}
+ -t 0.12064 -s 1 -d 0 -p tcp -e 1040 -c 1 -i 16 -a 1 -x {1.1 0.2 2 ------- null}
r -t 0.12125 -s 2 -d 0 -p ack -e 40 -c 2 -i 11 -a 2 -x {2.0 0.1 0 ------- null}
+ -t 0.12125 -s 0 -d 2 -p tcp -e 1040 -c 2 -i 17 -a 2 -x {0.1 2.0 1 ------- null}
- -t 0.12125 -s 0 -d 2 -p tcp -e 1040 -c 2 -i 17 -a 2 -x {0.1 2.0 1 ------- null}
h -t 0.12125 -s 0 -d 2 -p tcp -e 1040 -c 2 -i 17 -a 2 -x {0.1 2.0 -1 ------- null}
+ -t 0.12125 -s 0 -d 2 -p tcp -e 1040 -c 2 -i 18 -a 2 -x {0.1 2.0 2 ------- null}
r -t 0.12125 -s 0 -d 2 -p ack -e 40 -c 2 -i 12 -a 2 -x {0.3 2.1 0 ------- null}
+ -t 0.12125 -s 2 -d 0 -p tcp -e 1040 -c 2 -i 19 -a 2 -x {2.1 0.3 1 ------- null}
- -t 0.12125 -s 2 -d 0 -p tcp -e 1040 -c 2 -i 19 -a 2 -x {2.1 0.3 1 ------- null}
h -t 0.12125 -s 2 -d 0 -p tcp -e 1040 -c 2 -i 19 -a 2 -x {2.1 0.3 -1 ------- null}
+ -t 0.12125 -s 2 -d 0 -p tcp -e 1040 -c 2 -i 20 -a 2 -x {2.1 0.3 2 ------- null}
- -t 0.12896 -s 0 -d 1 -p tcp -e 1040 -c 1 -i 14 -a 1 -x {0.0 1.0 2 ------- null}
h -t 0.12896 -s 0 -d 1 -p tcp -e 1040 -c 1 -i 14 -a 1 -x {0.0 1.0 -1 ------- null}
- -t 0.12896 -s 1 -d 0 -p tcp -e 1040 -c 1 -i 16 -a 1 -x {1.1 0.2 2 ------- null}
h -t 0.12896 -s 1 -d 0 -p tcp -e 1040 -c 1 -i 16 -a 1 -x {1.1 0.2 -1 ------- null}
- -t 0.1375 -s 0 -d 2 -p tcp -e 1040 -c 2 -i 18 -a 2 -x {0.1 2.0 2 ------- null}
h -t 0.1375 -s 0 -d 2 -p tcp -e 1040 -c 2 -i 18 -a 2 -x {0.1 2.0 -1 ------- null}
- -t 0.1375 -s 2 -d 0 -p tcp -e 1040 -c 2 -i 20 -a 2 -x {2.1 0.3 2 ------- null}
h -t 0.1375 -s 2 -d 0 -p tcp -e 1040 -c 2 -i 20 -a 2 -x {2.1 0.3 -1 ------- null}
r -t 0.13896 -s 0 -d 1 -p tcp -e 1040 -c 1 -i 13 -a 1 -x {0.0 1.0 1 ------- null}
+ -t 0.13896 -s 1 -d 0 -p ack -e 40 -c 1 -i 21 -a 1 -x {1.0 0.0 1 ------- null}
- -t 0.13896 -s 1 -d 0 -p ack -e 40 -c 1 -i 21 -a 1 -x {1.0 0.0 1 ------- null}
h -t 0.13896 -s 1 -d 0 -p ack -e 40 -c 1 -i 21 -a 1 -x {1.0 0.0 -1 ------- null}
r -t 0.13896 -s 1 -d 0 -p tcp -e 1040 -c 1 -i 15 -a 1 -x {1.1 0.2 1 ------- null}
+ -t 0.13896 -s 0 -d 1 -p ack -e 40 -c 1 -i 22 -a 1 -x {0.2 1.1 1 ------- null}
- -t 0.13896 -s 0 -d 1 -p ack -e 40 -c 1 -i 22 -a 1 -x {0.2 1.1 1 ------- null}
h -t 0.13896 -s 0 -d 1 -p ack -e 40 -c 1 -i 22 -a 1 -x {0.2 1.1 -1 ------- null}
r -t 0.14728 -s 0 -d 1 -p tcp -e 1040 -c 1 -i 14 -a 1 -x {0.0 1.0 2 ------- null}
+ -t 0.14728 -s 1 -d 0 -p ack -e 40 -c 1 -i 23 -a 1 -x {1.0 0.0 2 ------- null}
- -t 0.14728 -s 1 -d 0 -p ack -e 40 -c 1 -i 23 -a 1 -x {1.0 0.0 2 ------- null}
h -t 0.14728 -s 1 -d 0 -p ack -e 40 -c 1 -i 23 -a 1 -x {1.0 0.0 -1 ------- null}
r -t 0.14728 -s 1 -d 0 -p tcp -e 1040 -c 1 -i 16 -a 1 -x {1.1 0.2 2 ------- null}
+ -t 0.14728 -s 0 -d 1 -p ack -e 40 -c 1 -i 24 -a 1 -x {0.2 1.1 2 ------- null}
- -t 0.14728 -s 0 -d 1 -p ack -e 40 -c 1 -i 24 -a 1 -x {0.2 1.1 2 ------- null}
h -t 0.14728 -s 0 -d 1 -p ack -e 40 -c 1 -i 24 -a 1 -x {0.2 1.1 -1 ------- null}
r -t 0.1475 -s 0 -d 2 -p tcp -e 1040 -c 2 -i 17 -a 2 -x {0.1 2.0 1 ------- null}
+ -t 0.1475 -s 2 -d 0 -p ack -e 40 -c 2 -i 25 -a 2 -x {2.0 0.1 1 ------- null}
r -t 0.1475 -s 2 -d 0 -p tcp -e 1040 -c 2 -i 19 -a 2 -x {2.1 0.3 1 ------- null}
+ -t 0.1475 -s 0 -d 2 -p ack -e 40 -c 2 -i 26 -a 2 -x {0.3 2.1 1 ------- null}
r -t 0.14928 -s 1 -d 0 -p ack -e 40 -c 1 -i 21 -a 1 -x {1.0 0.0 1 ------- null}
+ -t 0.14928 -s 0 -d 1 -p tcp -e 1040 -c 1 -i 27 -a 1 -x {0.0 1.0 3 ------- null}
- -t 0.14928 -s 0 -d 1 -p tcp -e 1040 -c 1 -i 27 -a 1 -x {0.0 1.0 3 ------- null}
h -t 0.14928 -s 0 -d 1 -p tcp -e 1040 -c 1 -i 27 -a 1 -x {0.0 1.0 -1 ------- null}
+ -t 0.14928 -s 0 -d 1 -p tcp -e 1040 -c 1 -i 28 -a 1 -x {0.0 1.0 4 ------- null}
r -t 0.14928 -s 0 -d 1 -p ack -e 40 -c 1 -i 22 -a 1 -x {0.2 1.1 1 ------- null}
+ -t 0.14928 -s 1 -d 0 -p tcp -e 1040 -c 1 -i 29 -a 1 -x {1.1 0.2 3 ------- null}
- -t 0.14928 -s 1 -d 0 -p tcp -e 1040 -c 1 -i 29 -a 1 -x {1.1 0.2 3 ------- null}
h -t 0.14928 -s 1 -d 0 -p tcp -e 1040 -c 1 -i 29 -a 1 -x {1.1 0.2 -1 ------- null}
+ -t 0.14928 -s 1 -d 0 -p tcp -e 1040 -c 1 -i 30 -a 1 -x {1.1 0.2 4 ------- null}
- -t 0.15375 -s 0 -d 2 -p ack -e 40 -c 2 -i 26 -a 2 -x {0.3 2.1 1 ------- null}
h -t 0.15375 -s 0 -d 2 -p ack -e 40 -c 2 -i 26 -a 2 -x {0.3 2.1 -1 ------- null}
- -t 0.15375 -s 2 -d 0 -p ack -e 40 -c 2 -i 25 -a 2 -x {2.0 0.1 1 ------- null}
h -t 0.15375 -s 2 -d 0 -p ack -e 40 -c 2 -i 25 -a 2 -x {2.0 0.1 -1 ------- null}
r -t 0.1576 -s 1 -d 0 -p ack -e 40 -c 1 -i 23 -a 1 -x {1.0 0.0 2 ------- null}
+ -t 0.1576 -s 0 -d 1 -p tcp -e 1040 -c 1 -i 31 -a 1 -x {0.0 1.0 5 ------- null}
+ -t 0.1576 -s 0 -d 1 -p tcp -e 1040 -c 1 -i 32 -a 1 -x {0.0 1.0 6 ------- null}
r -t 0.1576 -s 0 -d 1 -p ack -e 40 -c 1 -i 24 -a 1 -x {0.2 1.1 2 ------- null}
+ -t 0.1576 -s 1 -d 0 -p tcp -e 1040 -c 1 -i 33 -a 1 -x {1.1 0.2 5 ------- null}
+ -t 0.1576 -s 1 -d 0 -p tcp -e 1040 -c 1 -i 34 -a 1 -x {1.1 0.2 6 ------- null}
- -t 0.1576 -s 0 -d 1 -p tcp -e 1040 -c 1 -i 28 -a 1 -x {0.0 1.0 4 ------- null}
h -t 0.1576 -s 0 -d 1 -p tcp -e 1040 -c 1 -i 28 -a 1 -x {0.0 1.0 -1 ------- null}
- -t 0.1576 -s 1 -d 0 -p tcp -e 1040 -c 1 -i 30 -a 1 -x {1.1 0.2 4 ------- null}
h -t 0.1576 -s 1 -d 0 -p tcp -e 1040 -c 1 -i 30 -a 1 -x {1.1 0.2 -1 ------- null}
r -t 0.16375 -s 0 -d 2 -p tcp -e 1040 -c 2 -i 18 -a 2 -x {0.1 2.0 2 ------- null}
+ -t 0.16375 -s 2 -d 0 -p ack -e 40 -c 2 -i 35 -a 2 -x {2.0 0.1 2 ------- null}
- -t 0.16375 -s 2 -d 0 -p ack -e 40 -c 2 -i 35 -a 2 -x {2.0 0.1 2 ------- null}
h -t 0.16375 -s 2 -d 0 -p ack -e 40 -c 2 -i 35 -a 2 -x {2.0 0.1 -1 ------- null}
r -t 0.16375 -s 2 -d 0 -p tcp -e 1040 -c 2 -i 20 -a 2 -x {2.1 0.3 2 ------- null}
+ -t 0.16375 -s 0 -d 2 -p ack -e 40 -c 2 -i 36 -a 2 -x {0.3 2.1 2 ------- null}
- -t 0.16375 -s 0 -d 2 -p ack -e 40 -c 2 -i 36 -a 2 -x {0.3 2.1 2 ------- null}
h -t 0.16375 -s 0 -d 2 -p ack -e 40 -c 2 -i 36 -a 2 -x {0.3 2.1 -1 ------- null}
r -t 0.164375 -s 0 -d 2 -p ack -e 40 -c 2 -i 26 -a 2 -x {0.3 2.1 1 ------- null}
+ -t 0.164375 -s 2 -d 0 -p tcp -e 1040 -c 2 -i 37 -a 2 -x {2.1 0.3 3 ------- null}
+ -t 0.164375 -s 2 -d 0 -p tcp -e 1040 -c 2 -i 38 -a 2 -x {2.1 0.3 4 ------- null}
r -t 0.164375 -s 2 -d 0 -p ack -e 40 -c 2 -i 25 -a 2 -x {2.0 0.1 1 ------- null}
+ -t 0.164375 -s 0 -d 2 -p tcp -e 1040 -c 2 -i 39 -a 2 -x {0.1 2.0 3 ------- null}
+ -t 0.164375 -s 0 -d 2 -p tcp -e 1040 -c 2 -i 40 -a 2 -x {0.1 2.0 4 ------- null}
- -t 0.164375 -s 2 -d 0 -p tcp -e 1040 -c 2 -i 37 -a 2 -x {2.1 0.3 3 ------- null}
h -t 0.164375 -s 2 -d 0 -p tcp -e 1040 -c 2 -i 37 -a 2 -x {2.1 0.3 -1 ------- null}
- -t 0.164375 -s 0 -d 2 -p tcp -e 1040 -c 2 -i 39 -a 2 -x {0.1 2.0 3 ------- null}
h -t 0.164375 -s 0 -d 2 -p tcp -e 1040 -c 2 -i 39 -a 2 -x {0.1 2.0 -1 ------- null}
- -t 0.16592 -s 0 -d 1 -p tcp -e 1040 -c 1 -i 31 -a 1 -x {0.0 1.0 5 ------- null}
h -t 0.16592 -s 0 -d 1 -p tcp -e 1040 -c 1 -i 31 -a 1 -x {0.0 1.0 -1 ------- null}
- -t 0.16592 -s 1 -d 0 -p tcp -e 1040 -c 1 -i 33 -a 1 -x {1.1 0.2 5 ------- null}
h -t 0.16592 -s 1 -d 0 -p tcp -e 1040 -c 1 -i 33 -a 1 -x {1.1 0.2 -1 ------- null}
r -t 0.1676 -s 0 -d 1 -p tcp -e 1040 -c 1 -i 27 -a 1 -x {0.0 1.0 3 ------- null}
+ -t 0.1676 -s 1 -d 0 -p ack -e 40 -c 1 -i 41 -a 1 -x {1.0 0.0 3 ------- null}
r -t 0.1676 -s 1 -d 0 -p tcp -e 1040 -c 1 -i 29 -a 1 -x {1.1 0.2 3 ------- null}
+ -t 0.1676 -s 0 -d 1 -p ack -e 40 -c 1 -i 42 -a 1 -x {0.2 1.1 3 ------- null}
- -t 0.17424 -s 0 -d 1 -p tcp -e 1040 -c 1 -i 32 -a 1 -x {0.0 1.0 6 ------- null}
h -t 0.17424 -s 0 -d 1 -p tcp -e 1040 -c 1 -i 32 -a 1 -x {0.0 1.0 -1 ------- null}
- -t 0.17424 -s 1 -d 0 -p tcp -e 1040 -c 1 -i 34 -a 1 -x {1.1 0.2 6 ------- null}
h -t 0.17424 -s 1 -d 0 -p tcp -e 1040 -c 1 -i 34 -a 1 -x {1.1 0.2 -1 ------- null}
r -t 0.174375 -s 2 -d 0 -p ack -e 40 -c 2 -i 35 -a 2 -x {2.0 0.1 2 ------- null}
+ -t 0.174375 -s 0 -d 2 -p tcp -e 1040 -c 2 -i 43 -a 2 -x {0.1 2.0 5 ------- null}
+ -t 0.174375 -s 0 -d 2 -p tcp -e 1040 -c 2 -i 44 -a 2 -x {0.1 2.0 6 ------- null}
r -t 0.174375 -s 0 -d 2 -p ack -e 40 -c 2 -i 36 -a 2 -x {0.3 2.1 2 ------- null}
+ -t 0.174375 -s 2 -d 0 -p tcp -e 1040 -c 2 -i 45 -a 2 -x {2.1 0.3 5 ------- null}
+ -t 0.174375 -s 2 -d 0 -p tcp -e 1040 -c 2 -i 46 -a 2 -x {2.1 0.3 6 ------- null}
r -t 0.17592 -s 0 -d 1 -p tcp -e 1040 -c 1 -i 28 -a 1 -x {0.0 1.0 4 ------- null}
+ -t 0.17592 -s 1 -d 0 -p ack -e 40 -c 1 -i 47 -a 1 -x {1.0 0.0 4 ------- null}
r -t 0.17592 -s 1 -d 0 -p tcp -e 1040 -c 1 -i 30 -a 1 -x {1.1 0.2 4 ------- null}
+ -t 0.17592 -s 0 -d 1 -p ack -e 40 -c 1 -i 48 -a 1 -x {0.2 1.1 4 ------- null}
- -t 0.180625 -s 2 -d 0 -p tcp -e 1040 -c 2 -i 38 -a 2 -x {2.1 0.3 4 ------- null}
h -t 0.180625 -s 2 -d 0 -p tcp -e 1040 -c 2 -i 38 -a 2 -x {2.1 0.3 -1 ------- null}
- -t 0.180625 -s 0 -d 2 -p tcp -e 1040 -c 2 -i 40 -a 2 -x {0.1 2.0 4 ------- null}
h -t 0.180625 -s 0 -d 2 -p tcp -e 1040 -c 2 -i 40 -a 2 -x {0.1 2.0 -1 ------- null}
- -t 0.18256 -s 0 -d 1 -p ack -e 40 -c 1 -i 42 -a 1 -x {0.2 1.1 3 ------- null}
h -t 0.18256 -s 0 -d 1 -p ack -e 40 -c 1 -i 42 -a 1 -x {0.2 1.1 -1 ------- null}
- -t 0.18256 -s 1 -d 0 -p ack -e 40 -c 1 -i 41 -a 1 -x {1.0 0.0 3 ------- null}
h -t 0.18256 -s 1 -d 0 -p ack -e 40 -c 1 -i 41 -a 1 -x {1.0 0.0 -1 ------- null}
- -t 0.18288 -s 0 -d 1 -p ack -e 40 -c 1 -i 48 -a 1 -x {0.2 1.1 4 ------- null}
h -t 0.18288 -s 0 -d 1 -p ack -e 40 -c 1 -i 48 -a 1 -x {0.2 1.1 -1 ------- null}
- -t 0.18288 -s 1 -d 0 -p ack -e 40 -c 1 -i 47 -a 1 -x {1.0 0.0 4 ------- null}
h -t 0.18288 -s 1 -d 0 -p ack -e 40 -c 1 -i 47 -a 1 -x {1.0 0.0 -1 ------- null}
r -t 0.18424 -s 0 -d 1 -p tcp -e 1040 -c 1 -i 31 -a 1 -x {0.0 1.0 5 ------- null}
+ -t 0.18424 -s 1 -d 0 -p ack -e 40 -c 1 -i 49 -a 1 -x {1.0 0.0 5 ------- null}
- -t 0.18424 -s 1 -d 0 -p ack -e 40 -c 1 -i 49 -a 1 -x {1.0 0.0 5 ------- null}
h -t 0.18424 -s 1 -d 0 -p ack -e 40 -c 1 -i 49 -a 1 -x {1.0 0.0 -1 ------- null}
r -t 0.18424 -s 1 -d 0 -p tcp -e 1040 -c 1 -i 33 -a 1 -x {1.1 0.2 5 ------- null}
+ -t 0.18424 -s 0 -d 1 -p ack -e 40 -c 1 -i 50 -a 1 -x {0.2 1.1 5 ------- null}
- -t 0.18424 -s 0 -d 1 -p ack -e 40 -c 1 -i 50 -a 1 -x {0.2 1.1 5 ------- null}
h -t 0.18424 -s 0 -d 1 -p ack -e 40 -c 1 -i 50 -a 1 -x {0.2 1.1 -1 ------- null}
r -t 0.190625 -s 2 -d 0 -p tcp -e 1040 -c 2 -i 37 -a 2 -x {2.1 0.3 3 ------- null}
+ -t 0.190625 -s 0 -d 2 -p ack -e 40 -c 2 -i 51 -a 2 -x {0.3 2.1 3 ------- null}
r -t 0.190625 -s 0 -d 2 -p tcp -e 1040 -c 2 -i 39 -a 2 -x {0.1 2.0 3 ------- null}
+ -t 0.190625 -s 2 -d 0 -p ack -e 40 -c 2 -i 52 -a 2 -x {2.0 0.1 3 ------- null}
r -t 0.19256 -s 0 -d 1 -p tcp -e 1040 -c 1 -i 32 -a 1 -x {0.0 1.0 6 ------- null}
+ -t 0.19256 -s 1 -d 0 -p ack -e 40 -c 1 -i 53 -a 1 -x {1.0 0.0 6 ------- null}
- -t 0.19256 -s 1 -d 0 -p ack -e 40 -c 1 -i 53 -a 1 -x {1.0 0.0 6 ------- null}
h -t 0.19256 -s 1 -d 0 -p ack -e 40 -c 1 -i 53 -a 1 -x {1.0 0.0 -1 ------- null}
r -t 0.19256 -s 1 -d 0 -p tcp -e 1040 -c 1 -i 34 -a 1 -x {1.1 0.2 6 ------- null}
+ -t 0.19256 -s 0 -d 1 -p ack -e 40 -c 1 -i 54 -a 1 -x {0.2 1.1 6 ------- null}
- -t 0.19256 -s 0 -d 1 -p ack -e 40 -c 1 -i 54 -a 1 -x {0.2 1.1 6 ------- null}
h -t 0.19256 -s 0 -d 1 -p ack -e 40 -c 1 -i 54 -a 1 -x {0.2 1.1 -1 ------- null}
r -t 0.19288 -s 0 -d 1 -p ack -e 40 -c 1 -i 42 -a 1 -x {0.2 1.1 3 ------- null}
+ -t 0.19288 -s 1 -d 0 -p tcp -e 1040 -c 1 -i 55 -a 1 -x {1.1 0.2 7 ------- null}
+ -t 0.19288 -s 1 -d 0 -p tcp -e 1040 -c 1 -i 56 -a 1 -x {1.1 0.2 8 ------- null}
r -t 0.19288 -s 1 -d 0 -p ack -e 40 -c 1 -i 41 -a 1 -x {1.0 0.0 3 ------- null}
+ -t 0.19288 -s 0 -d 1 -p tcp -e 1040 -c 1 -i 57 -a 1 -x {0.0 1.0 7 ------- null}
+ -t 0.19288 -s 0 -d 1 -p tcp -e 1040 -c 1 -i 58 -a 1 -x {0.0 1.0 8 ------- null}
- -t 0.19288 -s 1 -d 0 -p tcp -e 1040 -c 1 -i 55 -a 1 -x {1.1 0.2 7 ------- null}
h -t 0.19288 -s 1 -d 0 -p tcp -e 1040 -c 1 -i 55 -a 1 -x {1.1 0.2 -1 ------- null}
- -t 0.19288 -s 0 -d 1 -p tcp -e 1040 -c 1 -i 57 -a 1 -x {0.0 1.0 7 ------- null}
h -t 0.19288 -s 0 -d 1 -p tcp -e 1040 -c 1 -i 57 -a 1 -x {0.0 1.0 -1 ------- null}
r -t 0.1932 -s 0 -d 1 -p ack -e 40 -c 1 -i 48 -a 1 -x {0.2 1.1 4 ------- null}
+ -t 0.1932 -s 1 -d 0 -p tcp -e 1040 -c 1 -i 59 -a 1 -x {1.1 0.2 9 ------- null}
+ -t 0.1932 -s 1 -d 0 -p tcp -e 1040 -c 1 -i 60 -a 1 -x {1.1 0.2 10 ------- null}
r -t 0.1932 -s 1 -d 0 -p ack -e 40 -c 1 -i 47 -a 1 -x {1.0 0.0 4 ------- null}
+ -t 0.1932 -s 0 -d 1 -p tcp -e 1040 -c 1 -i 61 -a 1 -x {0.0 1.0 9 ------- null}
+ -t 0.1932 -s 0 -d 1 -p tcp -e 1040 -c 1 -i 62 -a 1 -x {0.0 1.0 10 ------- null}
r -t 0.19456 -s 1 -d 0 -p ack -e 40 -c 1 -i 49 -a 1 -x {1.0 0.0 5 ------- null}
+ -t 0.19456 -s 0 -d 1 -p tcp -e 1040 -c 1 -i 63 -a 1 -x {0.0 1.0 11 ------- null}
+ -t 0.19456 -s 0 -d 1 -p tcp -e 1040 -c 1 -i 64 -a 1 -x {0.0 1.0 12 ------- null}
d -t 0.19456 -s 0 -d 1 -p tcp -e 1040 -c 1 -i 64 -a 1 -x {0.0 1.0 12 ------- null}
r -t 0.19456 -s 0 -d 1 -p ack -e 40 -c 1 -i 50 -a 1 -x {0.2 1.1 5 ------- null}
+ -t 0.19456 -s 1 -d 0 -p tcp -e 1040 -c 1 -i 65 -a 1 -x {1.1 0.2 11 ------- null}
+ -t 0.19456 -s 1 -d 0 -p tcp -e 1040 -c 1 -i 66 -a 1 -x {1.1 0.2 12 ------- null}
- -t 0.196875 -s 2 -d 0 -p tcp -e 1040 -c 2 -i 45 -a 2 -x {2.1 0.3 5 ------- null}
h -t 0.196875 -s 2 -d 0 -p tcp -e 1040 -c 2 -i 45 -a 2 -x {2.1 0.3 -1 ------- null}
- -t 0.196875 -s 0 -d 2 -p tcp -e 1040 -c 2 -i 43 -a 2 -x {0.1 2.0 5 ------- null}
h -t 0.196875 -s 0 -d 2 -p tcp -e 1040 -c 2 -i 43 -a 2 -x {0.1 2.0 -1 ------- null}
- -t 0.2012 -s 1 -d 0 -p tcp -e 1040 -c 1 -i 56 -a 1 -x {1.1 0.2 8 ------- null}
h -t 0.2012 -s 1 -d 0 -p tcp -e 1040 -c 1 -i 56 -a 1 -x {1.1 0.2 -1 ------- null}
- -t 0.2012 -s 0 -d 1 -p tcp -e 1040 -c 1 -i 58 -a 1 -x {0.0 1.0 8 ------- null}
h -t 0.2012 -s 0 -d 1 -p tcp -e 1040 -c 1 -i 58 -a 1 -x {0.0 1.0 -1 ------- null}
r -t 0.20288 -s 1 -d 0 -p ack -e 40 -c 1 -i 53 -a 1 -x {1.0 0.0 6 ------- null}
+ -t 0.20288 -s 0 -d 1 -p tcp -e 1040 -c 1 -i 67 -a 1 -x {0.0 1.0 13 ------- null}
+ -t 0.20288 -s 0 -d 1 -p tcp -e 1040 -c 1 -i 68 -a 1 -x {0.0 1.0 14 ------- null}
d -t 0.20288 -s 0 -d 1 -p tcp -e 1040 -c 1 -i 68 -a 1 -x {0.0 1.0 14 ------- null}
r -t 0.20288 -s 0 -d 1 -p ack -e 40 -c 1 -i 54 -a 1 -x {0.2 1.1 6 ------- null}
+ -t 0.20288 -s 1 -d 0 -p tcp -e 1040 -c 1 -i 69 -a 1 -x {1.1 0.2 13 ------- null}
+ -t 0.20288 -s 1 -d 0 -p tcp -e 1040 -c 1 -i 70 -a 1 -x {1.1 0.2 14 ------- null}
r -t 0.206875 -s 2 -d 0 -p tcp -e 1040 -c 2 -i 38 -a 2 -x {2.1 0.3 4 ------- null}
+ -t 0.206875 -s 0 -d 2 -p ack -e 40 -c 2 -i 71 -a 2 -x {0.3 2.1 4 ------- null}
r -t 0.206875 -s 0 -d 2 -p tcp -e 1040 -c 2 -i 40 -a 2 -x {0.1 2.0 4 ------- null}
+ -t 0.206875 -s 2 -d 0 -p ack -e 40 -c 2 -i 72 -a 2 -x {2.0 0.1 4 ------- null}
- -t 0.20952 -s 1 -d 0 -p tcp -e 1040 -c 1 -i 59 -a 1 -x {1.1 0.2 9 ------- null}
h -t 0.20952 -s 1 -d 0 -p tcp -e 1040 -c 1 -i 59 -a 1 -x {1.1 0.2 -1 ------- null}
- -t 0.20952 -s 0 -d 1 -p tcp -e 1040 -c 1 -i 61 -a 1 -x {0.0 1.0 9 ------- null}
h -t 0.20952 -s 0 -d 1 -p tcp -e 1040 -c 1 -i 61 -a 1 -x {0.0 1.0 -1 ------- null}
r -t 0.2112 -s 1 -d 0 -p tcp -e 1040 -c 1 -i 55 -a 1 -x {1.1 0.2 7 ------- null}
+ -t 0.2112 -s 0 -d 1 -p ack -e 40 -c 1 -i 73 -a 1 -x {0.2 1.1 7 ------- null}
r -t 0.2112 -s 0 -d 1 -p tcp -e 1040 -c 1 -i 57 -a 1 -x {0.0 1.0 7 ------- null}
+ -t 0.2112 -s 1 -d 0 -p ack -e 40 -c 1 -i 74 -a 1 -x {1.0 0.0 7 ------- null}
- -t 0.213125 -s 2 -d 0 -p tcp -e 1040 -c 2 -i 46 -a 2 -x {2.1 0.3 6 ------- null}
h -t 0.213125 -s 2 -d 0 -p tcp -e 1040 -c 2 -i 46 -a 2 -x {2.1 0.3 -1 ------- null}
- -t 0.213125 -s 0 -d 2 -p tcp -e 1040 -c 2 -i 44 -a 2 -x {0.1 2.0 6 ------- null}
h -t 0.213125 -s 0 -d 2 -p tcp -e 1040 -c 2 -i 44 -a 2 -x {0.1 2.0 -1 ------- null}
- -t 0.21784 -s 1 -d 0 -p tcp -e 1040 -c 1 -i 60 -a 1 -x {1.1 0.2 10 ------- null}
h -t 0.21784 -s 1 -d 0 -p tcp -e 1040 -c 1 -i 60 -a 1 -x {1.1 0.2 -1 ------- null}
- -t 0.21784 -s 0 -d 1 -p tcp -e 1040 -c 1 -i 62 -a 1 -x {0.0 1.0 10 ------- null}
h -t 0.21784 -s 0 -d 1 -p tcp -e 1040 -c 1 -i 62 -a 1 -x {0.0 1.0 -1 ------- null}
r -t 0.21952 -s 1 -d 0 -p tcp -e 1040 -c 1 -i 56 -a 1 -x {1.1 0.2 8 ------- null}
+ -t 0.21952 -s 0 -d 1 -p ack -e 40 -c 1 -i 75 -a 1 -x {0.2 1.1 8 ------- null}
r -t 0.21952 -s 0 -d 1 -p tcp -e 1040 -c 1 -i 58 -a 1 -x {0.0 1.0 8 ------- null}
+ -t 0.21952 -s 1 -d 0 -p ack -e 40 -c 1 -i 76 -a 1 -x {1.0 0.0 8 ------- null}
r -t 0.223125 -s 2 -d 0 -p tcp -e 1040 -c 2 -i 45 -a 2 -x {2.1 0.3 5 ------- null}
+ -t 0.223125 -s 0 -d 2 -p ack -e 40 -c 2 -i 77 -a 2 -x {0.3 2.1 5 ------- null}
r -t 0.223125 -s 0 -d 2 -p tcp -e 1040 -c 2 -i 43 -a 2 -x {0.1 2.0 5 ------- null}
+ -t 0.223125 -s 2 -d 0 -p ack -e 40 -c 2 -i 78 -a 2 -x {2.0 0.1 5 ------- null}
- -t 0.22616 -s 1 -d 0 -p tcp -e 1040 -c 1 -i 65 -a 1 -x {1.1 0.2 11 ------- null}
h -t 0.22616 -s 1 -d 0 -p tcp -e 1040 -c 1 -i 65 -a 1 -x {1.1 0.2 -1 ------- null}
- -t 0.22616 -s 0 -d 1 -p tcp -e 1040 -c 1 -i 63 -a 1 -x {0.0 1.0 11 ------- null}
h -t 0.22616 -s 0 -d 1 -p tcp -e 1040 -c 1 -i 63 -a 1 -x {0.0 1.0 -1 ------- null}
r -t 0.22784 -s 1 -d 0 -p tcp -e 1040 -c 1 -i 59 -a 1 -x {1.1 0.2 9 ------- null}
+ -t 0.22784 -s 0 -d 1 -p ack -e 40 -c 1 -i 79 -a 1 -x {0.2 1.1 9 ------- null}
r -t 0.22784 -s 0 -d 1 -p tcp -e 1040 -c 1 -i 61 -a 1 -x {0.0 1.0 9 ------- null}
+ -t 0.22784 -s 1 -d 0 -p ack -e 40 -c 1 -i 80 -a 1 -x {1.0 0.0 9 ------- null}
- -t 0.229375 -s 2 -d 0 -p ack -e 40 -c 2 -i 52 -a 2 -x {2.0 0.1 3 ------- null}
h -t 0.229375 -s 2 -d 0 -p ack -e 40 -c 2 -i 52 -a 2 -x {2.0 0.1 -1 ------- null}
- -t 0.229375 -s 0 -d 2 -p ack -e 40 -c 2 -i 51 -a 2 -x {0.3 2.1 3 ------- null}
h -t 0.229375 -s 0 -d 2 -p ack -e 40 -c 2 -i 51 -a 2 -x {0.3 2.1 -1 ------- null}
- -t 0.23 -s 2 -d 0 -p ack -e 40 -c 2 -i 72 -a 2 -x {2.0 0.1 4 ------- null}
h -t 0.23 -s 2 -d 0 -p ack -e 40 -c 2 -i 72 -a 2 -x {2.0 0.1 -1 ------- null}
- -t 0.23 -s 0 -d 2 -p ack -e 40 -c 2 -i 71 -a 2 -x {0.3 2.1 4 ------- null}
h -t 0.23 -s 0 -d 2 -p ack -e 40 -c 2 -i 71 -a 2 -x {0.3 2.1 -1 ------- null}
- -t 0.230625 -s 2 -d 0 -p ack -e 40 -c 2 -i 78 -a 2 -x {2.0 0.1 5 ------- null}
h -t 0.230625 -s 2 -d 0 -p ack -e 40 -c 2 -i 78 -a 2 -x {2.0 0.1 -1 ------- null}
- -t 0.230625 -s 0 -d 2 -p ack -e 40 -c 2 -i 77 -a 2 -x {0.3 2.1 5 ------- null}
h -t 0.230625 -s 0 -d 2 -p ack -e 40 -c 2 -i 77 -a 2 -x {0.3 2.1 -1 ------- null}
- -t 0.23448 -s 1 -d 0 -p tcp -e 1040 -c 1 -i 66 -a 1 -x {1.1 0.2 12 ------- null}
h -t 0.23448 -s 1 -d 0 -p tcp -e 1040 -c 1 -i 66 -a 1 -x {1.1 0.2 -1 ------- null}
- -t 0.23448 -s 0 -d 1 -p tcp -e 1040 -c 1 -i 67 -a 1 -x {0.0 1.0 13 ------- null}
h -t 0.23448 -s 0 -d 1 -p tcp -e 1040 -c 1 -i 67 -a 1 -x {0.0 1.0 -1 ------- null}
r -t 0.23616 -s 1 -d 0 -p tcp -e 1040 -c 1 -i 60 -a 1 -x {1.1 0.2 10 ------- null}
+ -t 0.23616 -s 0 -d 1 -p ack -e 40 -c 1 -i 81 -a 1 -x {0.2 1.1 10 ------- null}
r -t 0.23616 -s 0 -d 1 -p tcp -e 1040 -c 1 -i 62 -a 1 -x {0.0 1.0 10 ------- null}
+ -t 0.23616 -s 1 -d 0 -p ack -e 40 -c 1 -i 82 -a 1 -x {1.0 0.0 10 ------- null}
r -t 0.239375 -s 2 -d 0 -p tcp -e 1040 -c 2 -i 46 -a 2 -x {2.1 0.3 6 ------- null}
+ -t 0.239375 -s 0 -d 2 -p ack -e 40 -c 2 -i 83 -a 2 -x {0.3 2.1 6 ------- null}
- -t 0.239375 -s 0 -d 2 -p ack -e 40 -c 2 -i 83 -a 2 -x {0.3 2.1 6 ------- null}
h -t 0.239375 -s 0 -d 2 -p ack -e 40 -c 2 -i 83 -a 2 -x {0.3 2.1 -1 ------- null}
r -t 0.239375 -s 0 -d 2 -p tcp -e 1040 -c 2 -i 44 -a 2 -x {0.1 2.0 6 ------- null}
+ -t 0.239375 -s 2 -d 0 -p ack -e 40 -c 2 -i 84 -a 2 -x {2.0 0.1 6 ------- null}
- -t 0.239375 -s 2 -d 0 -p ack -e 40 -c 2 -i 84 -a 2 -x {2.0 0.1 6 ------- null}
h -t 0.239375 -s 2 -d 0 -p ack -e 40 -c 2 -i 84 -a 2 -x {2.0 0.1 -1 ------- null}
r -t 0.24 -s 2 -d 0 -p ack -e 40 -c 2 -i 52 -a 2 -x {2.0 0.1 3 ------- null}
+ -t 0.24 -s 0 -d 2 -p tcp -e 1040 -c 2 -i 85 -a 2 -x {0.1 2.0 7 ------- null}
+ -t 0.24 -s 0 -d 2 -p tcp -e 1040 -c 2 -i 86 -a 2 -x {0.1 2.0 8 ------- null}
r -t 0.24 -s 0 -d 2 -p ack -e 40 -c 2 -i 51 -a 2 -x {0.3 2.1 3 ------- null}
+ -t 0.24 -s 2 -d 0 -p tcp -e 1040 -c 2 -i 87 -a 2 -x {2.1 0.3 7 ------- null}
+ -t 0.24 -s 2 -d 0 -p tcp -e 1040 -c 2 -i 88 -a 2 -x {2.1 0.3 8 ------- null}
- -t 0.24 -s 0 -d 2 -p tcp -e 1040 -c 2 -i 85 -a 2 -x {0.1 2.0 7 ------- null}
h -t 0.24 -s 0 -d 2 -p tcp -e 1040 -c 2 -i 85 -a 2 -x {0.1 2.0 -1 ------- null}
- -t 0.24 -s 2 -d 0 -p tcp -e 1040 -c 2 -i 87 -a 2 -x {2.1 0.3 7 ------- null}
h -t 0.24 -s 2 -d 0 -p tcp -e 1040 -c 2 -i 87 -a 2 -x {2.1 0.3 -1 ------- null}
r -t 0.240625 -s 2 -d 0 -p ack -e 40 -c 2 -i 72 -a 2 -x {2.0 0.1 4 ------- null}
+ -t 0.240625 -s 0 -d 2 -p tcp -e 1040 -c 2 -i 89 -a 2 -x {0.1 2.0 9 ------- null}
+ -t 0.240625 -s 0 -d 2 -p tcp -e 1040 -c 2 -i 90 -a 2 -x {0.1 2.0 10 ------- null}
r -t 0.240625 -s 0 -d 2 -p ack -e 40 -c 2 -i 71 -a 2 -x {0.3 2.1 4 ------- null}
+ -t 0.240625 -s 2 -d 0 -p tcp -e 1040 -c 2 -i 91 -a 2 -x {2.1 0.3 9 ------- null}
+ -t 0.240625 -s 2 -d 0 -p tcp -e 1040 -c 2 -i 92 -a 2 -x {2.1 0.3 10 ------- null}
r -t 0.24125 -s 2 -d 0 -p ack -e 40 -c 2 -i 78 -a 2 -x {2.0 0.1 5 ------- null}
+ -t 0.24125 -s 0 -d 2 -p tcp -e 1040 -c 2 -i 93 -a 2 -x {0.1 2.0 11 ------- null}
+ -t 0.24125 -s 0 -d 2 -p tcp -e 1040 -c 2 -i 94 -a 2 -x {0.1 2.0 12 ------- null}
r -t 0.24125 -s 0 -d 2 -p ack -e 40 -c 2 -i 77 -a 2 -x {0.3 2.1 5 ------- null}
+ -t 0.24125 -s 2 -d 0 -p tcp -e 1040 -c 2 -i 95 -a 2 -x {2.1 0.3 11 ------- null}
+ -t 0.24125 -s 2 -d 0 -p tcp -e 1040 -c 2 -i 96 -a 2 -x {2.1 0.3 12 ------- null}
- -t 0.2428 -s 1 -d 0 -p tcp -e 1040 -c 1 -i 69 -a 1 -x {1.1 0.2 13 ------- null}
h -t 0.2428 -s 1 -d 0 -p tcp -e 1040 -c 1 -i 69 -a 1 -x {1.1 0.2 -1 ------- null}
- -t 0.2428 -s 0 -d 1 -p ack -e 40 -c 1 -i 73 -a 1 -x {0.2 1.1 7 ------- null}
h -t 0.2428 -s 0 -d 1 -p ack -e 40 -c 1 -i 73 -a 1 -x {0.2 1.1 -1 ------- null}
- -t 0.24312 -s 0 -d 1 -p ack -e 40 -c 1 -i 75 -a 1 -x {0.2 1.1 8 ------- null}
h -t 0.24312 -s 0 -d 1 -p ack -e 40 -c 1 -i 75 -a 1 -x {0.2 1.1 -1 ------- null}
- -t 0.24344 -s 0 -d 1 -p ack -e 40 -c 1 -i 79 -a 1 -x {0.2 1.1 9 ------- null}
h -t 0.24344 -s 0 -d 1 -p ack -e 40 -c 1 -i 79 -a 1 -x {0.2 1.1 -1 ------- null}
- -t 0.24376 -s 0 -d 1 -p ack -e 40 -c 1 -i 81 -a 1 -x {0.2 1.1 10 ------- null}
h -t 0.24376 -s 0 -d 1 -p ack -e 40 -c 1 -i 81 -a 1 -x {0.2 1.1 -1 ------- null}
r -t 0.24448 -s 1 -d 0 -p tcp -e 1040 -c 1 -i 65 -a 1 -x {1.1 0.2 11 ------- null}
+ -t 0.24448 -s 0 -d 1 -p ack -e 40 -c 1 -i 97 -a 1 -x {0.2 1.1 11 ------- null}
- -t 0.24448 -s 0 -d 1 -p ack -e 40 -c 1 -i 97 -a 1 -x {0.2 1.1 11 ------- null}
h -t 0.24448 -s 0 -d 1 -p ack -e 40 -c 1 -i 97 -a 1 -x {0.2 1.1 -1 ------- null}
r -t 0.24448 -s 0 -d 1 -p tcp -e 1040 -c 1 -i 63 -a 1 -x {0.0 1.0 11 ------- null}
+ -t 0.24448 -s 1 -d 0 -p ack -e 40 -c 1 -i 98 -a 1 -x {1.0 0.0 11 ------- null}
r -t 0.25 -s 0 -d 2 -p ack -e 40 -c 2 -i 83 -a 2 -x {0.3 2.1 6 ------- null}
+ -t 0.25 -s 2 -d 0 -p tcp -e 1040 -c 2 -i 99 -a 2 -x {2.1 0.3 13 ------- null}
+ -t 0.25 -s 2 -d 0 -p tcp -e 1040 -c 2 -i 100 -a 2 -x {2.1 0.3 14 ------- null}
r -t 0.25 -s 2 -d 0 -p ack -e 40 -c 2 -i 84 -a 2 -x {2.0 0.1 6 ------- null}
+ -t 0.25 -s 0 -d 2 -p tcp -e 1040 -c 2 -i 101 -a 2 -x {0.1 2.0 13 ------- null}
+ -t 0.25 -s 0 -d 2 -p tcp -e 1040 -c 2 -i 102 -a 2 -x {0.1 2.0 14 ------- null}
- -t 0.25112 -s 1 -d 0 -p tcp -e 1040 -c 1 -i 70 -a 1 -x {1.1 0.2 14 ------- null}
h -t 0.25112 -s 1 -d 0 -p tcp -e 1040 -c 1 -i 70 -a 1 -x {1.1 0.2 -1 ------- null}
r -t 0.2528 -s 1 -d 0 -p tcp -e 1040 -c 1 -i 66 -a 1 -x {1.1 0.2 12 ------- null}
+ -t 0.2528 -s 0 -d 1 -p ack -e 40 -c 1 -i 103 -a 1 -x {0.2 1.1 12 ------- null}
- -t 0.2528 -s 0 -d 1 -p ack -e 40 -c 1 -i 103 -a 1 -x {0.2 1.1 12 ------- null}
h -t 0.2528 -s 0 -d 1 -p ack -e 40 -c 1 -i 103 -a 1 -x {0.2 1.1 -1 ------- null}
r -t 0.2528 -s 0 -d 1 -p tcp -e 1040 -c 1 -i 67 -a 1 -x {0.0 1.0 13 ------- null}
+ -t 0.2528 -s 1 -d 0 -p ack -e 40 -c 1 -i 104 -a 1 -x {1.0 0.0 11 ------- null}
r -t 0.25312 -s 0 -d 1 -p ack -e 40 -c 1 -i 73 -a 1 -x {0.2 1.1 7 ------- null}
+ -t 0.25312 -s 1 -d 0 -p tcp -e 1040 -c 1 -i 105 -a 1 -x {1.1 0.2 15 ------- null}
+ -t 0.25312 -s 1 -d 0 -p tcp -e 1040 -c 1 -i 106 -a 1 -x {1.1 0.2 16 ------- null}
r -t 0.25344 -s 0 -d 1 -p ack -e 40 -c 1 -i 75 -a 1 -x {0.2 1.1 8 ------- null}
+ -t 0.25344 -s 1 -d 0 -p tcp -e 1040 -c 1 -i 107 -a 1 -x {1.1 0.2 17 ------- null}
+ -t 0.25344 -s 1 -d 0 -p tcp -e 1040 -c 1 -i 108 -a 1 -x {1.1 0.2 18 ------- null}
r -t 0.25376 -s 0 -d 1 -p ack -e 40 -c 1 -i 79 -a 1 -x {0.2 1.1 9 ------- null}
+ -t 0.25376 -s 1 -d 0 -p tcp -e 1040 -c 1 -i 109 -a 1 -x {1.1 0.2 19 ------- null}
+ -t 0.25376 -s 1 -d 0 -p tcp -e 1040 -c 1 -i 110 -a 1 -x {1.1 0.2 20 ------- null}
r -t 0.25408 -s 0 -d 1 -p ack -e 40 -c 1 -i 81 -a 1 -x {0.2 1.1 10 ------- null}
+ -t 0.25408 -s 1 -d 0 -p tcp -e 1040 -c 1 -i 111 -a 1 -x {1.1 0.2 21 ------- null}
+ -t 0.25408 -s 1 -d 0 -p tcp -e 1040 -c 1 -i 112 -a 1 -x {1.1 0.2 22 ------- null}
r -t 0.2548 -s 0 -d 1 -p ack -e 40 -c 1 -i 97 -a 1 -x {0.2 1.1 11 ------- null}
+ -t 0.2548 -s 1 -d 0 -p tcp -e 1040 -c 1 -i 113 -a 1 -x {1.1 0.2 23 ------- null}